LAMMPS Description

4 atoms

4 atom types

0 47.13 xlo xhi
0 47.13 ylo yhi
0 47.13 zlo zhi

Masses

1 0.500363
2 0.519426
3 0.477395
4 0.511256

Pair Coeffs # morse

1 8.1 33 0.984983 
2 8.1 33 0.997337 
3 8.1 33 0.969675 
4 8.1 33 0.992079 

Atoms

1 1 46.4506 15.1946 24.5231
2 2 9.79043 6.54441 14.5177
3 3 33.7927 31.4994 34.9494
4 4 27.3936 7.11498 38.2475
