10500
Atoms. Timestep: 1000
4 21.2433 15.98 18.8638
4 6.45289 0.726164 47.056
3 23.7716 45.0482 20.7271
3 0.43428 19.1529 5.26518
3 32.4308 27.8252 40.3398
5 37.5321 16.2898 36.8819
3 26.471 34.2249 9.23304
5 34.193 38.3976 20.7585
2 27.0126 12.5818 7.35997
4 21.931 23.1099 15.1856
3 2.16244 42.3875 23.0558
3 4.93086 7.59079 4.17003
5 10.7936 30.38 24.6849
2 45.6876 41.9256 39.2228
5 20.0713 30.2757 1.55613
2 20.8842 29.9681 8.52907
1 26.4563 44.7116 7.62919
6 2.01569 23.654 31.5133
4 15.8868 6.63976 2.12206
3 33.5611 2.51589 13.2028
2 44.7508 46.8034 16.4177
5 16.0923 40.1561 35.9721
5 10.9912 37.1502 25.075
5 0.877019 21.4405 32.1269
4 33.2765 9.19294 9.71115
3 35.3758 31.0522 7.01326
4 2.45373 46.9406 42.1018
5 36.0704 16.6242 8.87368
5 19.2112 3.54782 5.72296
4 1.40209 31.5873 6.73062
5 27.1811 19.5767 6.46072
4 7.73117 9.94158 9.01909
2 10.7149 38.5667 38.975
5 14.8659 31.0868 33.3586
3 26.5877 4.33108 44.3599
3 18.1199 4.24009 43.2627
4 36.1396 7.49465 3.78212
4 27.8225 6.8019 9.05252
5 29.3193 23.4157 28.9044
4 28.2447 33.7733 41.4998
2 39.2027 5.96185 9.90014
6 28.8468 3.81968 45.9947
4 37.2667 37.8749 46.1659
4 8.69933 44.3051 11.0636
3 23.2977 31.7372 31.0458
5 4.98427 40.9897 35.9024
3 45.4768 28.678 31.3957
4 11.6079 24.9798 16.5514
3 28.7837 41.5086 27.5368
4 1.70296 12.1137 10.7985
5 26.4079 27.1742 37.7762
4 14.8545 42.7983 25.1793
5 21.5194 46.9913 12.1494
6 21.2413 30.9093 35.161
4 22.9274 40.2678 44.9222
5 28.8988 21.5092 10.0769
3 40.1983 25.8063 44.8514
4 22.3707 39.791 3.80712
4 31.356 41.1154 45.2627
3 38.2463 2.51701 21.0925
4 26.5589 46.9501 18.9331
4 0.281278 12.1763 26.1457
4 9.53079 29.1325 28.9823
4 8.17405 38.6916 10.8117
5 36.3468 17.9094 25.3602
5 12.8493 35.1973 26.6388
5 28.6117 25.9365 41.7178
1 19.9267 43.1764 43.0048
3 30.9934 30.1484 3.04468
5 44.8053 31.325 31.797
3 35.074 20.5546 14.2765
5 26.5804 31.8555 32.3248
5 40.3811 15.8764 7.96836
4 39.9871 30.0021 34.2995
3 7.63786 40.9837 20.362
3 24.5257 46.411 9.56558
5 36.7081 36.8131 8.7581
3 10.5029 0.331822 22.9682
4 32.929 18.7688 45.54
6 2.8475 12.8871 29.2279
3 42.6778 41.6651 36.9418
6 36.1201 21.2637 44.8491
5 44.8251 46.6629 26.1509
5 33.3224 41.4323 37.8045
2 26.2491 10.3684 15.9715
4 22.5048 35.9183 32.2109
5 12.5895 32.2492 8.49254
4 44.5121 35.2176 33.9451
4 8.07364 20.35 20.0524
5 19.4625 27.8116 2.39561
4 21.94 35.0554 44.4907
4 10.4456 45.1171 1.45561
4 21.3915 44.4548 41.658
5 26.282 5.18668 25.0332
4 26.0125 42.5594 29.8214
4 29.5579 33.2908 25.2528
5 1.12971 44.5651 28.7452
4 29.4115 22.4301 10.0958
4 18.0007 6.36375 40.115
4 19.2647 42.7679 36.532
4 7.01922 6.97201 18.565
3 0.725149 38.5037 46.1742
2 15.2215 15.6649 31.4013
4 0.0231894 12.609 7.04765
4 24.3071 38.6443 19.2871
5 0.82908 0.633464 23.608
4 26.2219 27.1068 39.5844
3 0.790913 37.7892 1.99103
4 12.8094 13.628 43.0888
5 0.737797 33.644 27.602
4 7.70808 32.2363 14.6137
6 17.1987 40.2717 27.8699
3 41.3571 35.106 15.5097
5 4.21717 18.419 44.3142
4 10.6877 21.5545 32.5911
5 11.0358 10.1961 20.1526
4 3.01421 14.9812 14.1445
5 26.302 2.78261 27.9059
4 16.7614 28.1693 35.4653
6 3.24019 30.6647 42.5308
5 39.3911 27.1519 22.1151
5 10.084 4.10781 22.1053
4 13.9148 39.7831 11.6889
5 21.1491 3.21465 5.19427
5 44.6062 3.05596 1.73496
1 24.8483 42.3599 24.9186
4 28.2062 40.6105 25.2622
5 38.1124 43.8924 34.7061
6 4.03293 17.9545 9.58683
4 20.2101 37.5221 25.1223
4 1.02976 18.7959 17.877
5 8.80496 11.968 36.4008
3 45.688 21.0174 6.91575
4 8.08757 9.06862 17.7229
4 35.5286 1.84309 14.5462
2 34.3635 38.7855 18.7795
4 10.1055 13.1481 24.1916
4 31.6579 8.34261 5.89526
4 22.1004 24.0517 14.408
4 3.2188 7.03757 25.3096
6 46.3986 44.1623 44.7694
3 11.0318 1.90257 6.26742
3 42.019 32.2096 4.67193
3 23.6983 0.680257 34.8482
3 23.843 0.256641 0.151754
3 3.99172 8.17308 12.5466
3 31.4583 41.5991 3.24008
4 35.1269 19.3931 0.313609
3 45.3479 40.1851 31.4833
3 45.6576 28.9222 38.1385
2 38.381 36.5155 44.5151
4 12.1038 21.3677 14.0528
4 14.5987 42.1063 20.5632
4 38.4956 3.37683 5.32617
4 19.5529 17.7258 23.2009
3 11.9329 12.578 43.6751
3 46.9638 38.7547 21.6547
4 24.0083 8.71221 32.38
5 23.5309 40.3926 0.488892
4 42.0207 5.62674 15.9121
4 34.2656 40.5126 37.062
5 22.442 33.715 17.547
3 30.2093 27.8117 9.77433
4 35.3887 7.55018 21.7791
4 24.7763 10.0324 16.09
4 41.3026 27.0587 20.9572
4 0.414549 34.5033 45.5578
5 11.3319 8.26062 29.3451
3 8.35485 17.432 19.3148
6 20.9979 4.40402 6.30545
4 29.619 5.59611 35.728
6 26.9118 19.9047 9.23678
4 10.4921 20.7056 2.7841
6 45.8991 25.1973 1.33691
4 25.8851 28.4853 0.259639
4 32.2151 20.2085 42.408
3 37.5896 23.219 7.96967
5 31.4618 16.2927 42.6933
4 40.3379 30.7486 44.9084
3 44.1253 43.8657 29.6486
3 35.5281 18.6639 7.42215
5 17.6284 29.0867 39.8323
5 9.72275 41.6886 37.704
3 39.6797 38.6622 40.7739
5 15.8083 1.10785 37.2811
5 37.0112 36.0444 10.78
5 29.8212 45.2363 37.9194
6 3.05369 16.5284 33.953
4 35.7081 21.7097 6.0175
5 5.85651 1.38429 19.1119
5 6.27782 18.011 33.3997
3 36.9083 21.7183 8.03135
3 45.7218 33.1333 40.7935
4 14.3346 15.2666 32.909
4 27.3416 20.0394 45.4761
4 9.21722 19.411 18.5981
4 37.84 12.7046 25.0199
4 30.2784 6.17467 2.00821
4 43.5297 14.0268 3.44015
3 27.1764 19.0231 25.4572
3 31.5678 27.9756 7.24709
6 45.1711 0.686108 32.1095
4 19.2217 35.2118 36.8163
4 34.5323 10.0408 40.7728
5 5.72034 40.217 43.1986
3 36.0442 10.9351 8.69272
4 7.67193 44.3605 9.67639
5 31.0479 21.6926 34.4147
4 35.254 8.33438 45.0288
5 14.5289 35.1547 2.1661
3 17.5766 33.3295 0.206447
4 15.5654 33.7167 42.8503
4 4.42813 34.6067 6.3495
3 4.07675 14.8042 45.1466
3 11.415 38.8725 27.6931
3 0.680688 41.195 27.4865
3 11.6479 44.4543 5.63852
3 34.6884 8.67762 41.9001
6 19.6245 20.7694 18.5454
4 6.09145 35.6033 37.2218
4 31.8634 24.2684 20.6145
5 5.23191 19.1007 44.0204
6 43.4458 30.8911 2.97265
2 21.5681 30.9208 28.4797
4 7.06151 19.4325 33.6057
3 14.5772 36.5159 45.0208
3 38.3956 42.603 13.1385
4 34.685 27.758 43.4225
4 19.9395 22.3273 14.9459
6 41.0984 25.1293 27.0996
2 14.085 22.7358 2.1348
3 29.4678 45.0771 15.8874
4 45.6251 46.3468 30.9751
4 1.64654 8.25817 3.57562
4 44.5845 4.21184 43.849
4 1.8615 40.7522 38.0578
3 15.8897 43.408 34.6533
5 19.5211 43.1962 24.0177
4 27.9402 39.4307 34.9627
4 42.4397 39.0081 22.816
4 38.2087 34.2674 32.0271
5 44.4487 38.3704 4.67512
4 46.838 13.9433 27.1968
5 43.1602 41.1133 39.7329
5 30.8329 42.2434 26.0777
6 26.512 36.9832 2.90533
4 17.7438 17.4659 37.9659
5 26.5321 1.54494 19.1666
4 30.4602 23.1489 5.25592
3 38.6043 9.18693 18.5073
3 21.1959 26.3349 0.616287
4 34.49 27.4006 27.3626
4 39.7653 19.4386 8.22078
5 2.44829 5.17717 28.2096
3 40.1915 39.8958 20.2583
4 9.58889 22.6237 0.951566
3 37.836 5.90097 20.0229
4 44.5818 5.70983 20.2693
4 27.6634 30.3425 24.2591
4 27.7905 30.3979 22.6706
3 27.5998 10.7217 46.5139
3 14.8866 19.6756 36.6844
4 3.8914 33.5342 38.7684
3 6.49244 9.49857 38.1197
5 24.8805 43.4318 26.9219
4 36.3864 12.3747 44.554
6 11.0607 42.9486 42.5658
4 39.671 38.3315 42.5132
2 29.1109 36.6047 23.3479
4 28.4267 8.13593 28.1997
4 24.2989 25.5447 39.7798
4 46.397 27.0069 45.2021
4 37.0781 30.1312 23.4161
2 22.9943 14.5907 8.84433
5 34.0898 9.03286 4.69531
3 29.4855 8.42016 11.9616
5 19.7839 25.7352 18.7378
5 36.4029 34.2044 21.9056
2 15.9036 25.3671 26.6826
5 23.0214 5.00742 34.5789
4 40.7335 25.477 17.921
5 11.4613 9.13045 16.7359
3 44.676 0.730889 38.7146
3 26.9889 4.96452 42.4423
3 35.0183 30.9876 22.3642
4 46.4468 4.03955 38.0586
5 26.0018 7.91413 24.6485
3 20.17 7.28215 35.0798
4 27.4669 21.5223 10.7342
4 11.7364 42.1358 41.5943
4 8.42589 24.9552 19.1395
2 38.6888 22.288 14.0019
4 34.0411 3.65861 31.5553
3 36.5368 37.4547 21.7373
5 38.2449 15.5749 3.90732
4 34.9396 3.16758 24.9826
4 40.1547 9.6171 6.51507
5 26.6994 25.4366 39.6258
4 16.871 33.2755 32.5393
4 37.3563 17.9426 22.5503
4 26.556 40.634 22.7924
3 15.9208 37.5912 35.3869
5 31.7047 16.2812 27.9845
6 24.9574 22.8179 18.1617
5 44.1627 34.395 4.02416
3 26.2177 44.8373 13.2572
4 26.618 45.6403 12.8718
4 24.3902 14.2539 34.2174
4 42.3234 19.389 8.64523
5 9.38688 44.666 24.388
4 5.20034 32.1195 16.7641
3 7.98051 18.3675 38.9236
5 15.491 44.7255 23.2366
3 0.64823 29.591 34.8085
4 14.9586 28.4754 11.4278
4 11.7709 3.62471 6.6143
3 43.036 1.72517 10.9936
6 19.2068 31.9278 42.842
6 17.6435 27.639 0.445619
2 46.1492 13.0653 1.33021
5 25.7818 37.6368 6.50629
4 8.74052 19.8564 40.4087
5 18.2606 20.1982 5.5016
4 7.4365 27.5712 17.3705
5 14.0674 6.40513 37.3864
4 37.1725 14.9348 6.00868
6 47.1117 13.4566 37.0334
4 39.2469 9.17003 5.0616
4 33.789 43.9301 4.7376
3 42.2352 28.6823 8.46305
3 35.0496 2.21347 7.61629
2 2.13737 29.4173 44.6808
4 19.0158 44.3961 44.0705
4 29.5641 39.0705 3.79068
6 9.93571 42.0928 30.606
5 22.796 45.9792 33.5959
4 2.25655 18.7122 17.5998
5 26.721 35.987 36.502
5 25.0489 0.550352 16.364
3 3.15976 4.70536 29.9073
4 20.2358 38.6286 32.5857
5 5.62766 11.5971 31.4899
4 0.358556 24.3909 38.1586
4 29.3496 32.4887 10.1394
5 6.91534 15.4384 0.352592
3 21.734 0.549299 20.8428
6 23.9134 11.6219 35.9252
4 17.3886 24.3926 0.939643
4 33.2569 43.2917 17.1189
4 26.9283 44.3556 41.0159
4 10.4036 35.511 12.8827
5 32.8593 26.0634 8.04749
2 38.8524 37.8392 30.698
4 28.1761 14.8936 33.7085
2 43.6421 3.97058 46.9632
5 10.5131 9.87368 45.1314
5 3.88209 21.4627 21.9829
7 13.3826 0.742178 22.6184
1 1.69741 4.80366 29.9622
5 14.1863 16.2056 31.8744
4 3.71934 38.5845 44.0632
3 23.5381 11.892 24.1112
5 18.0794 34.6971 17.303
5 42.5522 34.1912 31.3402
3 44.1876 0.776435 33.4884
5 7.19927 28.0838 13.831
4 33.1587 15.0402 35.2101
4 12.6612 41.8611 15.3793
6 24.8252 34.6191 31.6587
4 20.2737 4.96063 45.1473
5 22.6623 23.2743 3.77784
3 38.0661 43.0094 12.295
4 9.75165 40.9866 36.2195
5 44.7025 16.2212 1.06361
2 21.228 32.8641 38.3659
5 37.2435 39.5932 2.62428
6 29.8556 22.3357 45.4371
5 14.9125 22.6679 36.5137
4 13.7084 18.3091 40.9903
4 5.27736 1.39493 0.675955
4 4.11916 39.1366 15.8617
4 23.3092 35.5031 18.9873
5 6.53486 39.6504 7.45537
5 1.00055 29.9918 45.3038
3 38.2852 6.58157 43.6805
5 12.5034 1.12411 12.9126
6 36.6558 15.5105 44.359
5 20.9323 40.8174 40.675
5 1.90647 43.0501 8.89365
3 35.8203 46.1182 8.50648
3 16.0932 25.6964 36.7921
5 29.1526 35.9889 3.76915
4 45.4791 33.607 20.8207
3 12.6864 38.936 12.122
4 42.5329 30.4917 35.9523
1 2.43636 38.1447 45.5606
6 12.7468 8.28543 8.13122
5 44.1927 44.051 1.17514
2 42.9221 46.8896 18.958
4 31.6763 9.28416 26.1777
5 8.47114 23.4703 33.3514
4 24.9106 33.9519 29.458
3 46.5827 13.9456 20.0829
4 6.06255 22.0953 2.25193
4 6.86318 0.990294 42.4368
5 0.853081 42.8156 15.759
3 38.3082 42.3314 36.7165
4 19.5906 46.3684 30.2557
1 22.1762 29.9246 25.2453
5 14.474 45.5607 31.2136
4 43.4091 42.7433 33.2061
4 2.94189 44.3291 16.8824
3 0.67151 3.14899 46.6818
4 31.7279 1.93698 31.5277
3 43.2608 43.8938 11.9573
6 33.009 19.0806 17.6671
5 20.8906 10.1266 30.6496
6 17.0479 39.6908 15.2096
3 10.9344 41.4307 31.0677
4 0.470353 8.58337 7.94522
5 2.34577 37.1671 30.6825
3 39.1834 3.5754 29.4577
3 8.42593 2.7668 12.4357
7 42.1462 29.4786 1.05216
4 18.7086 9.37425 16.1339
4 42.6376 25.7612 19.9504
2 22.5152 38.1542 37.0627
3 4.09214 8.57837 23.3413
5 4.73287 19.1602 23.106
4 16.577 14.8294 15.233
5 3.07224 1.37739 43.9871
4 43.3557 41.8994 6.37977
4 2.00186 15.6178 8.54893
4 42.4607 19.6579 5.48641
2 30.0092 36.0138 22.4866
4 8.56523 6.92727 36.1761
6 10.743 13.8632 11.295
4 41.9626 31.5678 11.1446
3 45.6125 36.6491 36.7528
3 0.656901 37.808 6.54166
7 46.704 11.147 1.74386
3 10.2157 18.1953 42.4876
3 36.6237 32.6045 40.7602
5 2.0876 35.133 20.7469
5 3.95533 35.4105 36.7324
4 10.7455 40.8322 40.2695
4 44.2116 12.7267 3.47377
5 3.87073 2.45924 10.8655
5 7.94376 31.5621 17.6235
5 40.0904 20.8704 26.6091
4 4.1156 37.5012 25.938
4 26.6175 36.4661 40.0963
3 1.31943 35.7615 7.9983
5 4.43979 39.9526 34.8555
5 15.7503 36.1011 29.5714
3 10.2908 23.2305 44.4358
2 11.4334 46.1289 36.8002
5 24.0109 35.9795 30.8439
4 3.81041 46.4928 32.7393
5 20.8185 30.4978 15.6189
3 13.8727 12.4782 3.75723
2 23.3117 44.3894 13.8591
4 43.3748 16.5698 20.3659
5 11.8515 38.1139 22.8665
4 6.64256 4.70297 44.1822
2 30.2873 11.6802 13.934
4 45.5253 5.4039 5.12496
3 41.3858 3.9845 15.3602
4 13.6192 19.1535 13.1695
2 31.8951 0.657768 30.2709
6 32.4734 26.8169 26.8656
4 43.8181 41.064 21.3965
3 33.4765 4.5265 36.8379
4 31.0715 35.1576 8.9818
4 42.6952 34.5856 4.87317
3 22.0822 22.7921 6.65351
3 9.82373 29.1324 19.2681
3 23.029 45.8859 25.0856
3 41.0532 26.5042 44.1766
5 41.458 24.7597 18.1033
5 33.6282 28.915 26.8478
4 10.4729 41.5953 1.33474
5 6.81316 21.5053 16.6167
5 42.5938 38.0859 22.3397
6 13.2749 17.4857 32.9092
4 4.49181 18.1662 23.8216
4 8.84624 16.2164 11.1725
3 2.86687 16.642 44.9109
4 -0.00516006 20.1049 5.32528
4 19.359 21.3985 11.2301
4 39.3809 11.5184 20.2447
3 0.309471 1.36101 12.7679
6 42.9931 27.7155 43.5974
4 9.32982 7.89096 23.2817
6 9.89961 19.5114 22.9669
6 7.45195 43.5341 26.3103
3 21.3181 41.8641 3.97199
5 21.6386 24.0512 25.7781
3 37.4408 5.00252 20.1982
3 45.0679 44.9937 15.2898
4 22.156 5.18158 6.8358
4 43.9219 23.4805 25.696
3 45.2468 22.4481 36.7399
6 4.97724 28.0372 29.6671
5 9.11918 10.5405 9.39443
3 6.4212 5.67757 20.9522
3 0.274173 42.3726 6.08581
3 7.20246 43.557 25.0154
4 31.2675 46.483 10.7232
3 24.3386 6.90149 46.5854
5 40.2792 46.4112 45.4702
6 36.6907 4.40412 34.646
3 30.8435 32.6223 8.87061
3 3.74142 0.813627 31.1059
5 17.3334 9.90414 26.9373
3 43.9848 15.2149 19.5496
5 41.5663 30.4012 37.5167
6 41.5625 33.5896 20.5613
3 29.0752 35.1185 36.3811
3 38.6634 38.0853 37.5007
4 5.53636 17.8876 0.412702
5 29.5446 44.8112 4.03076
5 33.3033 32.0133 41.3274
4 28.0559 25.0002 41.5632
5 3.90408 27.6269 35.8605
4 23.617 34.3889 9.9854
3 36.2 0.495402 38.7433
2 37.8798 16.5296 5.76447
6 47.0049 26.1757 36.9973
3 32.9146 33.2061 25.109
4 10.3906 40.5243 12.5631
3 13.7135 40.8102 38.1605
3 42.2421 10.9316 13.9407
3 6.81495 44.4317 4.66962
3 44.8888 18.9681 8.25404
4 30.1902 13.0416 41.9172
3 13.2159 17.2008 33.8853
4 17.9526 24.6042 6.06466
3 12.9401 43.7451 43.1021
2 36.7244 21.3665 41.7059
3 10.7289 41.0153 25.8267
4 22.9429 0.222894 3.89278
3 5.37732 5.7037 1.66532
3 1.59008 26.3944 0.907639
5 33.8311 37.146 34.5105
5 23.8465 25.891 44.5015
5 32.6717 11.3635 11.0965
5 18.788 7.28417 43.7978
5 45.876 6.39167 1.45094
4 5.09526 9.22129 15.6963
4 8.48569 41.1187 19.8708
3 44.8436 22.8138 14.3148
3 3.99266 4.82355 46.7239
3 1.30047 29.4341 17.1138
4 20.0439 27.9826 27.73
3 45.3232 9.66468 4.71398
4 29.1943 6.99878 23.4055
4 33.714 19.7918 35.2463
3 4.20353 14.6858 17.6701
3 11.7553 5.45697 31.5167
4 33.9607 23.3893 27.1179
4 34.171 1.33268 26.6377
3 29.1382 0.644694 46.311
2 24.3645 14.7448 41.3107
5 28.4345 13.2154 19.7554
5 19.19 10.3757 44.8126
3 35.6797 21.7836 28.0706
3 7.73925 38.703 36.2774
4 16.6014 12.6426 30.6736
4 22.7726 38.6246 30.2465
4 26.461 24.371 2.43826
5 15.9861 27.5114 44.3074
3 21.3323 7.85127 40.4126
5 5.80531 20.0009 31.1471
3 37.0908 35.076 46.6147
4 19.1315 25.9411 36.0864
3 25.3157 41.7609 28.4241
3 19.0665 33.8428 9.74471
3 10.8408 6.10089 8.12962
3 18.9855 12.3876 13.7049
3 29.7648 18.1299 41.47
2 2.1978 23.4136 19.1802
4 38.3657 16.5772 30.8629
4 9.4092 29.2582 26.7173
4 17.7759 34.6749 0.144637
3 0.38608 32.4332 7.13085
4 35.203 2.29367 25.3782
4 5.97532 21.8222 42.8366
6 24.9233 13.4394 34.658
2 35.7683 1.33406 11.8743
3 0.0750875 25.1559 45.4902
5 44.0437 45.2185 42.6928
3 5.71239 19.0337 31.4341
4 10.2084 37.5385 38.3956
5 43.0426 2.11389 5.06913
5 3.55177 22.3432 37.5344
3 41.7556 4.07365 41.7516
3 9.5229 0.504795 13.6494
4 33.2338 26.9286 18.4057
3 20.3831 41.2668 13.8221
3 19.6927 10.4485 35.6965
4 42.1792 5.12796 14.1266
5 34.7971 9.09119 16.8221
4 27.269 24.6943 31.2195
4 46.2886 33.9548 35.7526
3 25.2757 19.4549 42.3023
4 2.63705 31.7345 5.08418
4 20.3182 35.1977 21.6914
3 37.0041 43.6085 38.9361
5 15.6116 42.8463 30.4223
5 15.1197 37.9502 31.5957
2 44.2822 1.77054 25.748
4 25.7198 13.7173 29.5548
5 18.0528 36.4918 43.5837
5 16.9481 19.4447 30.3923
3 22.7386 16.201 8.33608
4 14.8025 26.6172 20.1168
5 42.1731 22.8362 29.0641
4 32.1231 27.0984 28.7719
5 15.3504 12.9554 2.18851
3 17.4483 22.5708 4.27264
5 35.3875 17.2531 8.35346
4 14.5268 26.0162 4.32227
4 23.1553 44.377 29.2523
5 44.2556 35.4158 23.7089
2 30.4403 39.6502 2.32429
4 15.1908 15.2007 7.9412
4 39.8941 36.0291 18.145
4 34.4609 12.445 30.1976
4 19.4682 29.8567 23.4066
4 28.2244 1.47191 14.1199
3 6.23362 9.80145 17.2086
3 28.5666 0.227824 43.3798
6 38.5754 25.6616 33.903
4 28.9103 9.42343 1.4819
5 29.8963 6.11407 20.5074
3 32.9038 17.6578 19.967
4 13.3647 28.081 44.7377
4 8.7075 26.0578 31.3915
4 38.451 16.4506 0.909426
4 32.2037 9.42567 3.89937
2 27.53 41.4505 22.6473
4 15.1657 19.998 38.7352
4 29.3522 32.8181 24.3915
4 13.8777 6.52199 24.6909
5 4.12342 45.1857 30.6611
4 45.4084 20.5045 20.4669
4 37.0937 43.0873 37.9902
5 32.7988 10.5627 15.4341
3 36.5224 35.7126 25.9811
4 8.55579 1.56458 18.4392
2 13.9468 8.65874 14.5224
3 37.9729 38.4699 17.9415
4 15.4185 31.9783 28.9162
4 30.3249 30.6011 12.059
4 12.7539 44.2104 0.497759
3 1.8614 10.165 21.3577
5 22.0705 18.8403 27.2171
6 21.5234 1.26804 39.8027
4 21.9865 0.604714 7.3632
6 39.939 0.0544644 29.8074
3 34.5102 27.1617 32.1984
5 11.5003 7.38379 21.2455
4 41.5032 30.0336 9.60497
3 33.6586 46.2654 20.804
4 30.2188 32.2984 42.5311
3 44.2886 26.508 21.1386
3 17.8525 35.2053 26.3031
5 33.1585 25.697 26.2174
3 10.196 24.785 19.3499
5 30.6584 35.2245 13.1929
5 41.089 31.6824 0.924073
3 20.4494 26.2171 29.8723
3 36.6192 16.3059 32.8647
6 6.8051 11.9082 3.65056
5 19.0412 32.091 34.8141
3 22.4284 29.1588 20.4946
4 46.088 46.7794 19.2643
4 33.5805 30.8834 17.6468
4 31.5868 10.3877 12.9528
3 23.9895 26.2613 0.954287
3 22.7153 9.88803 6.39565
2 22.1782 29.1816 42.356
5 31.801 43.2436 19.5101
2 22.6655 29.9874 11.4729
4 13.64 39.7061 18.5094
3 1.98115 27.3361 32.8852
2 42.7883 29.9437 28.6438
5 18.2058 37.1274 20.6126
5 3.84996 46.1141 44.0705
6 13.286 39.5455 6.72383
5 29.7766 34.2779 4.53488
4 17.9839 22.6444 33.3909
5 22.6075 14.4167 28.3223
3 21.5747 32.1977 15.1413
5 18.7669 7.43204 8.32378
3 9.03024 38.4471 10.0488
5 8.1189 1.44815 8.41165
4 25.4453 41.9874 21.1278
5 12.967 31.5004 34.0022
5 4.59151 30.6368 12.7907
5 15.9332 21.2359 11.9361
4 31.4232 39.0817 14.9816
5 22.5257 39.1616 41.2874
4 46.8151 11.8282 26.8782
3 13.6353 22.9503 35.8737
2 15.3539 45.9043 30.9329
4 43.8604 13.2785 12.6326
3 5.29178 19.3743 42.3301
4 31.8335 43.7367 44.1994
4 31.1027 3.59914 42.6237
3 22.23 5.02049 15.7767
3 26.4331 27.4005 7.89215
5 18.2826 12.9067 34.1261
3 44.2841 29.2046 16.8772
6 30.8982 38.6008 27.8947
3 8.43452 38.1761 46.913
3 20.1496 39.0499 33.4956
4 13.6287 44.3269 44.2336
2 14.4381 4.87772 15.2832
4 29.3474 24.6345 21.3862
3 30.9909 26.4668 1.39902
4 42.8853 21.5308 8.00252
5 9.45208 32.8434 38.4784
3 40.2537 41.651 11.5635
4 27.3246 14.1439 4.01357
4 32.8836 35.1398 30.8874
4 16.9068 21.6135 16.2183
3 12.9621 5.97718 19.2746
4 37.8025 24.5195 17.7772
3 35.861 9.7796 8.2784
3 16.2179 24.7088 30.9136
2 3.17418 15.3818 32.3551
4 23.1219 0.194595 1.83201
5 23.7649 32.1041 25.8383
3 20.5383 38.6047 0.521742
5 33.538 38.2792 2.01789
5 38.236 10.9831 5.95648
4 39.9535 39.3109 35.5592
4 35.0394 41.6336 32.7347
4 22.7628 14.6314 36.7243
2 11.7788 8.90403 30.3321
4 0.803161 36.3862 14.9089
3 31.6545 27.1727 11.4614
3 37.9491 30.3045 9.53838
2 39.8663 9.63983 5.58853
5 31.4404 0.77757 20.848
2 1.77222 43.5468 12.2129
3 42.0915 2.29632 34.279
5 27.9039 16.6484 28.0207
3 44.5567 2.3335 0.53473
2 12.923 39.8052 3.89801
5 11.4821 33.6246 40.7484
6 13.0022 15.3373 43.5608
5 25.9062 34.5708 20.985
3 31.0734 6.15485 1.43191
5 43.3325 34.1822 7.44702
5 8.02638 31.8041 42.0167
4 9.68705 17.1722 10.1268
4 20.805 12.0034 14.9859
3 20.6699 8.02957 19.3395
3 4.0339 17.7078 7.55535
5 46.4075 38.3645 1.83385
5 25.3748 41.3917 9.0943
6 13.2191 29.601 39.2416
4 36.5131 22.3972 41.8896
3 13.2642 13.0075 7.35051
5 43.167 19.9348 39.7548
3 19.1499 17.5202 20.721
6 39.3419 13.9749 33.0531
6 6.46242 21.2449 7.00636
4 4.81826 2.08573 10.1576
1 4.44593 31.156 23.6356
3 5.72064 10.5448 29.5738
4 5.07681 32.5266 23.1825
4 29.9145 29.1111 22.3627
3 28.1058 20.4872 21.5499
4 34.9893 26.135 21.7006
3 25.0073 32.6077 15.7388
3 24.8767 37.1844 45.1787
2 31.343 10.4403 16.0584
5 16.9377 15.3637 32.7343
3 1.14689 26.5291 33.7303
5 10.0686 22.4066 31.5634
4 17.9385 42.5068 42.9345
2 33.6723 31.6065 33.3367
5 6.44438 18.674 37.6824
5 39.0391 15.7165 34.7439
5 16.2192 2.64175 39.7081
3 3.82302 38.7798 40.0736
4 16.3534 38.7978 38.0701
3 37.741 15.9234 1.40995
2 11.761 3.42983 14.0939
4 20.4521 19.1215 44.9903
3 33.2727 10.0461 0.251925
4 20.6197 35.9176 40.2794
4 31.7886 38.1788 24.01
5 16.9115 8.49569 27.9935
6 12.0232 21.7837 34.9333
3 35.2698 46.2224 9.73422
6 46.8827 25.3354 40.7555
4 31.8675 14.0293 29.0014
4 3.94099 15.9743 8.07412
4 19.4777 36.2961 27.6231
4 21.1672 10.3956 3.4094
5 45.8153 6.22065 46.8115
4 41.7135 2.88407 34.9556
2 11.8259 32.8668 9.81082
5 0.122175 21.8232 8.77724
3 32.2569 37.5634 12.1619
5 11.8242 4.76448 40.2771
5 33.3546 13.7638 38.278
4 0.0518444 2.26611 15.9812
4 23.4922 29.2055 28.3656
5 23.5726 8.93465 10.2169
4 20.3469 3.30042 7.93695
4 13.2444 10.7191 22.1555
5 43.9508 34.2993 25.5231
4 32.1194 24.66 46.9405
3 30.0172 36.9134 41.2959
4 44.0007 0.372857 13.872
4 33.1733 32.3782 13.3631
5 6.46448 37.1299 17.2007
4 40.2504 3.23982 3.1066
5 34.2536 6.1698 16.6523
5 41.5786 26.0064 23.4118
5 11.1809 0.629968 35.0194
2 28.2059 34.9752 36.7757
5 3.10084 24.5352 11.6412
4 11.7054 7.56848 39.5668
3 43.3277 42.6278 38.2728
5 23.8224 17.2091 46.1747
4 21.0529 30.3258 33.5188
4 32.47 39.1577 6.78375
4 28.3306 34.8352 33.255
4 33.3406 42.009 43.0438
4 42.4192 4.56995 12.7637
5 34.9501 44.2869 13.786
5 14.2692 24.7417 18.5502
3 21.3773 13.6537 17.588
5 30.7392 20.7605 33.0416
5 37.1317 38.6548 22.4609
3 4.15881 26.667 4.77404
4 30.7071 10.2858 2.00072
5 41.8919 39.5312 36.0342
4 43.8645 13.9766 31.6579
3 42.0313 22.3301 41.9207
5 9.10965 34.2437 37.3623
4 31.6706 33.2655 36.385
3 17.4358 44.1107 14.0986
5 21.069 7.43056 45.8728
4 13.7749 35.6688 9.43968
5 6.84086 14.7044 1.18821
7 3.21086 34.002 33.434
3 19.9032 9.33877 17.0268
5 45.499 1.31904 12.128
3 15.3896 24.9214 34.925
4 31.3746 45.9592 36.7478
5 29.1317 40.6313 18.8495
6 34.0117 8.19098 7.55095
4 45.783 44.6173 24.8159
3 46.5888 1.12851 34.5947
5 2.3114 33.6322 45.467
4 32.1344 35.4157 13.46
3 31.3078 43.1526 2.01839
4 21.5718 38.6293 35.6353
2 38.2457 31.1822 26.2413
5 34.2474 37.8861 35.1393
4 27.0735 7.63818 34.6145
2 3.66178 19.644 46.522
4 29.4052 34.2437 24.9645
2 44.0967 13.0393 38.2783
4 42.1088 41.8408 36.1362
3 24.9295 39.5967 8.95687
2 34.2631 21.9547 6.91594
5 35.6306 32.7678 11.4281
5 5.99699 4.4478 17.6792
7 38.3564 38.5012 35.0486
5 44.7667 3.94692 16.3607
5 12.0028 17.6369 46.6591
5 16.5501 22.7598 10.1374
5 14.9563 10.8046 9.74914
5 23.7261 10.529 11.1441
4 19.5052 26.9916 43.3897
5 5.07199 20.3389 39.0994
4 21.2433 27.9105 45.9504
4 20.1093 44.4928 0.382865
4 12.8925 22.2437 32.7763
4 16.898 13.7494 22.1565
4 19.0864 1.80667 19.1729
4 40.5689 40.9426 9.00744
5 12.5507 30.459 39.3522
5 31.6665 3.53895 9.53888
3 46.4993 44.1798 20.8865
4 29.1932 34.05 18.5485
5 39.1 33.953 42.0059
3 44.1328 12.3045 12.1677
4 39.2085 4.47227 39.8219
5 14.5694 2.53568 44.2078
4 29.995 24.8603 20.6254
4 10.531 34.5207 5.37572
2 25.0651 32.354 44.1834
4 25.0058 29.9069 7.34819
5 4.05425 24.1172 11.4748
5 6.94784 28.0881 31.0374
5 30.8807 27.8865 2.20859
4 23.5073 32.7165 21.8583
4 31.4551 4.6626 25.9754
3 36.8256 40.6547 33.1836
2 40.7181 20.3377 40.2132
5 6.60248 21.2209 9.55685
3 43.3187 43.8863 2.01934
4 11.8521 6.47669 22.2842
7 15.2102 30.6808 13.8652
3 40.3115 36.4628 17.0288
5 25.9135 21.753 35.2573
3 22.0834 13.827 47.0752
3 31.9333 43.2237 4.92613
2 18.4738 18.9362 18.6696
5 10.1983 15.8893 6.17345
4 2.99594 6.45201 6.47303
5 41.5743 40.6982 42.4478
4 37.8225 38.9479 3.59541
3 22.6181 31.4992 42.5872
5 37.1519 34.8015 21.4894
3 40.5732 31.9809 33.6912
4 13.177 9.41729 6.58618
2 5.12243 14.4443 27.126
4 0.31636 7.36954 39.5982
6 4.18823 42.1211 20.9191
3 25.8821 24.44 44.2441
6 42.3485 10.3782 9.51758
6 40.4206 3.3006 13.4777
4 3.97072 44.7663 10.5438
5 3.99685 1.84908 30.6926
5 38.9686 36.7391 39.1724
4 6.63844 45.8016 3.08742
4 42.0272 12.5294 33.1822
4 2.4039 44.5487 1.06946
3 16.6009 6.60818 12.1983
4 14.6863 43.8999 0.573853
3 41.1983 36.6051 16.6743
3 19.2345 11.3702 1.42985
5 43.0256 29.441 41.1626
5 16.6819 9.63165 28.7638
2 31.3166 20.9885 6.92484
5 35.1155 28.4456 2.37247
4 37.1127 40.7431 46.0954
2 39.6326 22.3763 38.6485
4 39.7957 23.405 25.7624
5 43.8537 28.9387 33.4367
4 18.324 7.3321 9.51794
4 37.295 11.5716 32.1085
4 1.44701 31.6011 24.8848
3 6.40646 2.78185 7.51114
4 12.9523 25.2764 19.8673
3 42.2602 20.5325 37.843
4 45.3098 18.7812 11.23
3 38.2411 17.8864 42.02
3 25.5597 44.7042 32.9206
4 32.7598 9.00352 18.8652
5 21.0624 0.876318 9.03919
4 16.9573 14.4348 29.6208
3 2.00458 23.9081 8.76702
5 13.3308 32.5524 21.2173
3 40.2625 9.57459 43.4975
4 3.84944 43.4363 7.15504
4 41.5364 4.00725 7.6588
5 14.289 26.2346 30.5575
4 36.5234 0.647772 37.8342
3 19.4434 43.5337 3.50207
6 30.9117 20.284 1.92403
4 5.14759 26.0814 44.4236
3 34.8497 46.4432 13.4484
4 31.0978 41.023 26.6021
2 41.8083 17.2564 27.0311
6 19.3005 46.8241 45.3081
3 38.2482 10.471 28.2858
4 5.06956 18.0119 2.19282
5 13.7149 28.4843 23.9069
5 46.548 12.0439 38.2399
5 17.1848 2.09827 6.88245
6 28.9975 16.2742 5.57812
4 43.2814 28.4793 9.78588
4 21.2427 43.3123 42.5745
5 4.39741 22.6908 29.7054
4 46.3342 8.37758 20.3471
2 45.1072 19.5627 33.8506
3 28.9681 32.4678 30.6012
4 29.2147 12.7283 20.2724
4 39.645 44.8205 0.273444
5 37.2977 40.7103 0.685753
2 37.1178 9.2658 41.1564
5 38.5916 46.6472 40.6335
2 30.4672 5.33046 45.9481
4 27.8401 5.61549 32.191
5 8.40574 27.7936 23.3558
5 2.97762 12.9117 21.3996
3 2.11618 27.2514 9.03467
3 23.0608 42.9348 26.6742
6 30.5341 22.6214 9.33587
4 12.3237 31.7959 26.0031
4 45.0231 0.95321 36.4469
4 46.4167 20.9236 3.42894
4 27.6249 43.1102 43.3195
4 6.02144 42.9002 2.55364
7 11.1342 3.55508 37.5513
4 27.1742 8.71967 26.8516
4 1.69692 24.1242 43.7926
5 6.19241 9.79697 10.5547
5 41.9056 34.5538 37.9284
3 20.7052 31.6013 9.52715
2 23.3733 13.5874 12.3887
3 11.9343 42.6751 16.3882
5 10.3818 35.6722 33.3613
7 35.844 6.99254 7.37521
4 9.85036 20.7519 6.92044
3 36.5563 30.4837 44.8891
5 20.9484 32.5927 32.2018
4 45.1182 15.3961 21.7261
3 37.7876 34.492 31.1852
4 35.3341 35.4774 40.7137
4 25.5443 46.676 34.9959
3 43.2619 31.5985 22.0395
4 41.1769 44.6859 25.1498
5 34.4111 11.9559 7.37871
5 9.11017 1.59696 6.97393
3 7.61803 11.1119 23.8047
5 44.996 15.9763 31.8967
3 33.5147 25.9401 2.26402
6 28.2525 40.7661 8.84219
3 40.8337 3.77616 14.607
4 4.94427 36.5709 16.0986
5 39.2757 27.7451 43.436
5 29.8794 5.82051 5.32871
5 25.0876 35.0806 41.2018
3 5.17752 32.0056 17.9264
4 24.2065 44.8602 14.5649
5 3.40978 40.7278 26.1486
3 9.5772 4.27912 26.9026
4 44.742 23.8308 16.7892
5 23.1398 21.6169 1.45186
3 26.5518 28.8627 13.1393
3 13.2634 31.2392 19.2096
5 40.7316 5.01648 42.5716
3 18.4437 20.9118 23.8767
4 26.2125 45.2774 15.4437
4 0.226306 28.134 29.6555
4 13.5422 43.5363 46.1778
3 5.63442 21.4296 38.877
5 13.4049 16.4429 12.4445
4 2.22639 22.3152 40.839
4 29.7831 33.4024 20.791
5 33.5962 24.6764 42.7676
4 30.2277 32.3984 24.1817
6 16.653 13.4909 45.5783
5 11.2924 11.6977 41.3725
4 25.4844 36.6058 10.3471
4 35.8071 35.862 28.994
5 42.7856 14.9804 1.78563
4 43.874 46.3116 19.0624
5 22.0104 9.23991 39.74
3 26.6956 1.53519 1.52327
4 31.9844 16.2142 45.9507
4 11.3971 6.62012 44.6018
4 4.14701 26.7631 0.994346
6 3.98292 27.1123 37.5108
3 29.0142 3.88635 22.5376
3 28.2164 4.94133 27.1178
4 11.5179 31.1842 27.0071
5 43.2105 24.8346 32.4069
3 12.4295 17.6448 5.55563
2 32.9568 40.6695 30.5149
5 37.295 3.99433 20.0628
4 42.9409 16.2722 30.8478
3 12.595 10.2068 18.8577
4 26.8955 0.749132 41.257
4 28.1861 6.36528 14.0853
5 7.15982 29.6479 17.4966
5 25.1062 18.5143 26.2518
3 23.7242 32.7231 4.12346
4 15.2504 5.12366 16.1702
5 0.467651 27.2823 21.0017
5 38.8534 10.8505 8.44227
6 36.8817 12.576 19.1904
4 36.5192 29.5029 44.6771
5 2.70181 27.541 29.7326
5 1.48816 38.1467 18.7547
6 0.551882 32.5273 21.2003
4 37.0463 37.0262 10.3623
2 44.685 0.871019 46.0949
5 14.0047 20.6798 37.3193
2 17.8474 25.335 18.2945
3 40.8781 33.9993 35.0387
4 23.2689 40.743 35.8415
3 15.1532 36.2645 14.9545
3 30.0886 32.0491 5.42601
3 44.0719 33.744 19.2078
4 16.2834 25.782 30.5082
5 17.3508 20.9433 15.4792
2 23.1995 10.6109 16.2421
4 44.1071 15.6303 21.5463
4 6.50498 5.35341 12.1484
4 5.89175 26.01 35.4658
2 36.4472 43.3523 36.7852
4 19.921 2.10457 25.8716
4 13.657 27.4041 40.4042
6 35.9486 4.83898 15.465
4 21.6632 8.96534 29.4364
4 35.8748 7.85888 34.946
4 41.0195 21.6087 4.29053
5 32.0295 43.1817 3.20753
5 9.26945 45.2021 26.7654
4 34.8132 29.1039 6.35747
5 42.0419 12.2186 43.4317
4 34.0792 19.9615 30.4169
4 14.2831 38.1336 26.6785
4 29.519 9.22793 3.05145
3 5.97772 29.7073 2.21009
5 7.43476 37.6866 21.1714
5 26.0649 37.0487 36.6316
3 26.5274 34.07 36.5814
3 13.8407 34.7822 20.6234
4 31.0272 1.47758 42.0373
4 22.0021 27.3984 16.197
6 44.2412 35.7846 11.1405
5 43.8283 44.0559 45.0311
4 39.0886 16.2536 9.26193
3 33.117 18.6203 1.20548
5 41.4067 42.0012 22.9645
6 29.2047 45.8911 6.94319
4 5.35288 35.2525 14.9407
6 21.1754 7.18673 25.0215
5 16.0025 5.32822 45.2474
4 42.6672 23.4874 13.7791
4 20.8921 17.7121 2.50366
2 28.0807 26.8717 26.9908
6 2.40758 19.6452 5.79939
4 14.8186 35.2672 11.9427
3 13.9611 45.4182 4.09715
7 37.0323 34.8289 36.9849
5 31.2689 23.244 34.5437
3 30.3939 5.56318 10.5472
5 0.853827 34.4992 8.96474
4 19.288 38.0648 24.8598
3 2.15667 41.1479 0.578782
4 37.4395 23.4571 44.2678
3 32.4316 30.8144 21.0517
2 31.5525 7.81542 38.4506
3 29.295 38.6865 20.1969
4 8.98379 39.5302 44.4972
4 7.92559 24.6346 15.5215
3 14.4802 7.39452 24.7807
5 38.5348 3.26007 10.8689
4 41.739 45.9121 0.351283
5 30.9692 33.0021 43.1065
4 34.1316 20.0467 33.9628
3 43.8107 45.7778 12.006
5 3.51359 6.8511 15.5781
5 3.74727 30.0667 14.7719
3 34.759 18.5629 38.623
3 43.6674 37.8691 12.3801
6 44.2054 41.1394 41.6301
3 10.8114 5.33568 46.9188