ITEM: TIMESTEP
1000
ITEM: NUMBER OF ATOMS
10500
ITEM: BOX BOUNDS pp pp pp
0 47.13
0 47.13
0 47.13
ITEM: ATOMS id type xs ys zs
1 4 0.450738 0.339063 0.40025
2 4 0.136917 0.0154077 0.99843
3 3 0.504383 0.955828 0.439787
4 3 0.00921452 0.406383 0.111716
5 3 0.688113 0.590392 0.855927
6 5 0.796352 0.345635 0.782557
7 3 0.561659 0.72618 0.195906
8 5 0.725504 0.814716 0.440452
9 2 0.573151 0.26696 0.156163
10 4 0.465331 0.490344 0.322207
11 3 0.0458824 0.899375 0.489196
12 3 0.104623 0.161061 0.0884794
13 5 0.229018 0.644601 0.523763
14 2 0.969395 0.889573 0.832225
15 5 0.425872 0.642388 0.0330178
16 2 0.443119 0.635861 0.180969
17 1 0.561346 0.948687 0.161875
18 6 0.0427688 0.501887 0.668647
19 4 0.337085 0.140882 0.0450258
20 3 0.712095 0.0533819 0.280136
21 2 0.949519 0.993071 0.348349
22 5 0.341445 0.852028 0.763253
23 5 0.23321 0.788249 0.53204
24 5 0.0186085 0.454923 0.681667
25 4 0.706058 0.195055 0.20605
26 3 0.7506 0.658864 0.148807
27 4 0.0520631 0.99598 0.893312
28 5 0.765339 0.35273 0.188281
29 5 0.407622 0.0752774 0.121429
30 4 0.0297494 0.670216 0.14281
31 5 0.576727 0.415378 0.137083
32 4 0.164039 0.210939 0.191366
33 2 0.227347 0.818305 0.826968
34 5 0.315422 0.659598 0.7078
35 3 0.564135 0.0918964 0.941225
36 3 0.384467 0.0899659 0.917944
37 4 0.766807 0.159021 0.0802487
38 4 0.590336 0.144322 0.192076
39 5 0.622094 0.496832 0.613291
40 4 0.599294 0.7166 0.880539
41 2 0.8318 0.126498 0.21006
42 6 0.61207 0.0810455 0.975912
43 4 0.790722 0.803626 0.979544
44 4 0.184582 0.940062 0.234747
45 3 0.494329 0.673396 0.658727
46 5 0.105756 0.869716 0.761775
47 3 0.964923 0.608486 0.666152
48 4 0.246294 0.53002 0.351186
49 3 0.610729 0.880725 0.584274
50 4 0.0361332 0.257027 0.229122
51 5 0.560321 0.576581 0.801533
52 4 0.315181 0.908091 0.534253
53 5 0.456597 0.997056 0.257784
54 6 0.450697 0.655831 0.746042
55 4 0.486471 0.854399 0.953154
56 5 0.613172 0.45638 0.21381
57 3 0.852924 0.547557 0.951654
58 4 0.474658 0.844283 0.0807791
59 4 0.665308 0.872383 0.96038
60 3 0.811507 0.0534057 0.447539
61 4 0.563524 0.996182 0.401721
62 4 0.00596813 0.258356 0.554757
63 4 0.202223 0.618131 0.614944
64 4 0.173436 0.820956 0.229402
65 5 0.771203 0.38 0.53809
66 5 0.272636 0.746814 0.565219
67 5 0.607081 0.550319 0.885165
68 1 0.422804 0.916113 0.912472
69 3 0.657615 0.639685 0.0646017
70 5 0.950675 0.66465 0.674666
71 3 0.744197 0.436126 0.302918
72 5 0.56398 0.675908 0.685864
73 5 0.856803 0.336863 0.169072
74 4 0.848442 0.636582 0.727763
75 3 0.162059 0.869589 0.43204
76 3 0.520385 0.984744 0.202962
77 5 0.778868 0.781096 0.185829
78 3 0.22285 0.00704057 0.487338
79 4 0.698684 0.398234 0.966264
80 6 0.060418 0.273437 0.620155
81 3 0.905533 0.884047 0.783827
82 6 0.766392 0.451172 0.951605
83 5 0.951095 0.99009 0.554868
84 5 0.707031 0.879106 0.802132
85 2 0.55695 0.219996 0.338881
86 4 0.477505 0.76211 0.683448
87 5 0.267123 0.68426 0.180194
88 4 0.944453 0.747244 0.720244
89 4 0.171306 0.431785 0.42547
90 5 0.412954 0.590104 0.0508298
91 4 0.46552 0.743803 0.944
92 4 0.221634 0.957291 0.030885
93 4 0.453884 0.943238 0.883895
94 5 0.55765 0.11005 0.531152
95 4 0.551931 0.903021 0.632748
96 4 0.627156 0.70636 0.535812
97 5 0.02397 0.945577 0.609913
98 4 0.624051 0.475919 0.214212
99 4 0.381937 0.135025 0.851156
100 4 0.408757 0.907445 0.775133
101 4 0.148933 0.147932 0.39391
102 3 0.0153861 0.816968 0.97972
103 2 0.322968 0.332376 0.666269
104 4 0.00049203 0.267537 0.149536
105 4 0.515745 0.819951 0.409232
106 5 0.0175913 0.0134408 0.500913
107 4 0.556373 0.575149 0.839898
108 3 0.0167815 0.801808 0.0422455
109 4 0.271789 0.289158 0.914255
110 5 0.0156545 0.713855 0.585656
111 4 0.163549 0.683988 0.310073
112 6 0.364921 0.854482 0.591341
113 3 0.877511 0.744876 0.329083
114 5 0.0894796 0.390812 0.940255
115 4 0.22677 0.45734 0.691516
116 5 0.234157 0.216339 0.427595
117 4 0.0639551 0.31787 0.300117
118 5 0.558073 0.0590411 0.592106
119 4 0.355643 0.597694 0.752499
120 6 0.06875 0.650641 0.902414
121 5 0.835797 0.576106 0.469237
122 5 0.213961 0.0871592 0.469028
123 4 0.295244 0.844115 0.248013
124 5 0.448741 0.0682081 0.110212
125 5 0.94645 0.0648411 0.0368122
126 1 0.527229 0.898789 0.528721
127 4 0.598476 0.86167 0.536011
128 5 0.808665 0.931305 0.736391
129 6 0.0855703 0.380956 0.203413
130 4 0.428817 0.796141 0.533043
131 4 0.0218493 0.398811 0.379312
132 5 0.186823 0.253935 0.772349
133 3 0.969404 0.445946 0.146738
134 4 0.171601 0.192417 0.376044
135 4 0.753843 0.0391065 0.30864
136 2 0.729122 0.822947 0.398461
137 4 0.214417 0.278975 0.513296
138 4 0.671715 0.177013 0.125085
139 4 0.468923 0.510328 0.305707
140 4 0.0682962 0.149323 0.537017
141 6 0.984481 0.937032 0.949914
142 3 0.234072 0.0403687 0.132981
143 3 0.891555 0.683421 0.0991287
144 3 0.502828 0.0144336 0.739406
145 3 0.505898 0.00544539 0.0032199
146 3 0.084696 0.173416 0.266213
147 3 0.667479 0.882647 0.0687476
148 4 0.74532 0.411482 0.00665414
149 3 0.962187 0.852645 0.668011
150 3 0.968759 0.613668 0.80922
151 2 0.814365 0.774782 0.944518
152 4 0.256816 0.453377 0.298171
153 4 0.309754 0.893407 0.436308
154 4 0.816795 0.0716492 0.11301
155 4 0.414872 0.376104 0.492274
156 3 0.25319 0.266878 0.926694
157 3 0.996473 0.822293 0.459467
158 4 0.509405 0.184855 0.687036
159 5 0.499277 0.857047 0.0103733
160 4 0.891592 0.119388 0.33762
161 4 0.727045 0.859592 0.786379
162 5 0.476172 0.715361 0.37231
163 3 0.640978 0.590106 0.207391
164 4 0.750873 0.160199 0.462107
165 4 0.525701 0.212867 0.341396
166 4 0.876354 0.574129 0.444667
167 4 0.00879586 0.732089 0.966642
168 5 0.24044 0.175273 0.622641
169 3 0.177272 0.36987 0.409819
170 6 0.445531 0.093444 0.133789
171 4 0.628453 0.118738 0.758073
172 6 0.571012 0.422335 0.195985
173 4 0.22262 0.43933 0.0590729
174 6 0.973883 0.534634 0.0283664
175 4 0.549227 0.604398 0.00550899
176 4 0.683536 0.428782 0.899809
177 3 0.797573 0.492658 0.1691
178 5 0.667554 0.345697 0.905862
179 4 0.855887 0.65242 0.952863
180 3 0.936246 0.930739 0.62908
181 3 0.753832 0.396008 0.157482
182 5 0.374037 0.61716 0.845158
183 5 0.206296 0.884545 0.800001
184 3 0.841921 0.820331 0.865136
185 5 0.335419 0.0235063 0.791027
186 5 0.785301 0.764786 0.228729
187 5 0.632744 0.959819 0.804569
188 6 0.0647928 0.350698 0.720412
189 4 0.757651 0.460634 0.127679
190 5 0.124263 0.0293718 0.405514
191 5 0.133202 0.382155 0.708672
192 3 0.783116 0.460817 0.170408
193 3 0.970121 0.703019 0.865553
194 4 0.304151 0.323925 0.698259
195 4 0.580131 0.425194 0.964907
196 4 0.19557 0.411862 0.394612
197 4 0.802886 0.269565 0.53087
198 4 0.642444 0.131014 0.04261
199 4 0.92361 0.297619 0.0729927
200 3 0.576627 0.40363 0.540149
201 3 0.669803 0.593584 0.153768
202 6 0.958437 0.0145578 0.681297
203 4 0.407845 0.747121 0.781166
204 4 0.732703 0.213044 0.865113
205 5 0.121374 0.853321 0.916583
206 3 0.764781 0.23202 0.184441
207 4 0.162782 0.941238 0.205313
208 5 0.658772 0.460271 0.730209
209 4 0.748016 0.176838 0.955417
210 5 0.308272 0.74591 0.0459601
211 3 0.372938 0.707182 0.00438038
212 4 0.330264 0.715397 0.909194
213 4 0.0939556 0.734281 0.134723
214 3 0.0865 0.314113 0.957915
215 3 0.242202 0.824794 0.58759
216 3 0.0144428 0.874072 0.583206
217 3 0.247145 0.943227 0.119638
218 3 0.736014 0.184121 0.889032
219 6 0.416391 0.440684 0.393496
220 4 0.129248 0.755428 0.789768
221 4 0.676075 0.514925 0.437396
222 5 0.11101 0.405277 0.93402
223 6 0.921829 0.655444 0.0630734
224 2 0.45763 0.656074 0.60428
225 4 0.14983 0.412317 0.713042
226 3 0.309297 0.774791 0.955248
227 3 0.814674 0.903947 0.278771
228 4 0.735943 0.588967 0.921334
229 4 0.423074 0.473739 0.31712
230 6 0.872022 0.533191 0.574997
231 2 0.298854 0.482406 0.045296
232 3 0.625246 0.956442 0.337097
233 4 0.96807 0.983383 0.657226
234 4 0.0349361 0.175221 0.0758671
235 4 0.94599 0.0893664 0.930384
236 4 0.0394972 0.864676 0.807506
237 3 0.337147 0.921027 0.73527
238 5 0.414198 0.916532 0.509604
239 4 0.592832 0.836636 0.741836
240 4 0.900481 0.827671 0.484107
241 4 0.810709 0.727083 0.679548
242 5 0.943109 0.814139 0.0991963
243 4 0.993804 0.295847 0.57706
244 5 0.915769 0.872339 0.843048
245 5 0.654209 0.896316 0.553314
246 6 0.562529 0.784706 0.061645
247 4 0.376486 0.370589 0.805558
248 5 0.562956 0.0327804 0.406676
249 4 0.646302 0.491171 0.11152
250 3 0.819103 0.194927 0.392686
251 3 0.449734 0.558771 0.0130763
252 4 0.731805 0.581382 0.580577
253 4 0.843737 0.412446 0.174428
254 5 0.0519475 0.109849 0.598549
255 3 0.85278 0.846506 0.429838
256 4 0.203456 0.480028 0.0201902
257 3 0.802801 0.125206 0.424844
258 4 0.945932 0.121151 0.430073
259 4 0.586959 0.643804 0.514727
260 4 0.589655 0.644981 0.481022
261 3 0.58561 0.227492 0.986927
262 3 0.315863 0.417474 0.778367
263 4 0.0825674 0.711525 0.822585
264 3 0.137756 0.20154 0.80882
265 5 0.527913 0.921532 0.571226
266 4 0.772044 0.262566 0.945343
267 6 0.234684 0.91128 0.903157
268 4 0.841735 0.813315 0.90204
269 2 0.617672 0.776674 0.495394
270 4 0.603156 0.172627 0.598338
271 4 0.515573 0.542006 0.844045
272 4 0.984446 0.573031 0.959094
273 4 0.786719 0.63932 0.49684
274 2 0.487891 0.309584 0.187658
275 5 0.723314 0.191658 0.0996246
276 3 0.62562 0.178658 0.253801
277 5 0.419774 0.546046 0.397577
278 5 0.772394 0.725746 0.464792
279 2 0.337441 0.538238 0.566149
280 5 0.488466 0.106247 0.733692
281 4 0.864279 0.540569 0.380246
282 5 0.243185 0.193729 0.3551
283 3 0.947931 0.0155079 0.821444
284 3 0.572647 0.105337 0.900537
285 3 0.743015 0.657493 0.474521
286 4 0.985503 0.0857108 0.807524
287 5 0.551704 0.167921 0.52299
288 3 0.427965 0.154512 0.744321
289 4 0.582791 0.456657 0.227758
290 4 0.249021 0.894034 0.882543
291 4 0.17878 0.529498 0.406101
292 2 0.820896 0.472906 0.297092
293 4 0.72228 0.0776282 0.669537
294 3 0.775234 0.794711 0.46122
295 5 0.811476 0.330466 0.0829051
296 4 0.741344 0.0672095 0.530079
297 4 0.851998 0.204055 0.138236
298 5 0.566505 0.539711 0.840776
299 4 0.357967 0.706035 0.690415
300 4 0.792623 0.380705 0.47847
301 4 0.563463 0.862168 0.483607
302 3 0.337806 0.797606 0.750836
303 5 0.672708 0.345453 0.593774
304 6 0.529543 0.484147 0.385354
305 5 0.937041 0.729791 0.0853843
306 3 0.556285 0.951353 0.281289
307 4 0.564779 0.968392 0.273112
308 4 0.517508 0.302439 0.726022
309 4 0.898015 0.411394 0.183434
310 5 0.19917 0.94772 0.517463
311 4 0.11034 0.68151 0.355699
312 3 0.16933 0.389721 0.825878
313 5 0.328687 0.948981 0.493031
314 3 0.0137541 0.62786 0.738564
315 4 0.31739 0.604189 0.242474
316 4 0.249753 0.0769088 0.140342
317 3 0.913134 0.0366046 0.233261
318 6 0.407527 0.67744 0.909018
319 6 0.374357 0.586443 0.00945509
320 2 0.979189 0.277217 0.0282243
321 5 0.547035 0.798574 0.13805
322 4 0.185456 0.421312 0.857388
323 5 0.387451 0.428564 0.116733
324 4 0.157787 0.585004 0.368566
325 5 0.298481 0.135903 0.79326
326 4 0.788722 0.316885 0.127492
327 6 0.999612 0.285521 0.785771
328 4 0.832736 0.194569 0.107397
329 4 0.716931 0.932106 0.100522
330 3 0.896143 0.608578 0.179568
331 3 0.743678 0.0469653 0.161602
332 2 0.0453506 0.624173 0.948033
333 4 0.403476 0.941992 0.935083
334 4 0.627288 0.828994 0.0804303
335 6 0.210815 0.893122 0.649395
336 5 0.483684 0.975581 0.712834
337 4 0.0478793 0.397033 0.373431
338 5 0.566964 0.763568 0.774496
339 5 0.531484 0.0116773 0.347211
340 3 0.0670434 0.099838 0.63457
341 4 0.429361 0.819617 0.691399
342 5 0.119407 0.246066 0.66815
343 4 0.0076078 0.517523 0.809645
344 4 0.622736 0.689342 0.215137
345 5 0.146729 0.327571 0.00748126
346 3 0.46115 0.011655 0.442241
347 6 0.507391 0.246593 0.762257
348 4 0.368951 0.517561 0.0199373
349 4 0.705643 0.918559 0.363228
350 4 0.571363 0.941133 0.870271
351 4 0.220743 0.753469 0.273344
352 5 0.697206 0.553011 0.170751
353 2 0.824367 0.802869 0.651347
354 4 0.597838 0.316011 0.715224
355 2 0.925994 0.0842474 0.99646
356 5 0.223066 0.209499 0.957594
357 5 0.0823699 0.455394 0.46643
358 7 0.283951 0.0157475 0.479915
359 1 0.0360155 0.101924 0.635736
360 5 0.301003 0.343849 0.676307
361 4 0.0789167 0.818682 0.934929
362 3 0.49943 0.252323 0.51159
363 5 0.383608 0.736199 0.367133
364 5 0.902868 0.725465 0.664974
365 3 0.937568 0.0164743 0.710553
366 5 0.152753 0.595879 0.293464
367 4 0.703557 0.319121 0.747084
368 4 0.268644 0.888205 0.326318
369 6 0.526739 0.734545 0.671731
370 4 0.430166 0.105254 0.957931
371 5 0.480846 0.493832 0.0801578
372 3 0.807682 0.912569 0.260874
373 4 0.20691 0.86965 0.768501
374 5 0.948494 0.344179 0.0225677
375 2 0.450413 0.697308 0.814044
376 5 0.790229 0.840085 0.0556816
377 6 0.633473 0.473916 0.964079
378 5 0.316412 0.480966 0.774745
379 4 0.290864 0.38848 0.869729
380 4 0.111975 0.0295975 0.0143424
381 4 0.0873999 0.830398 0.336553
382 4 0.494572 0.753302 0.40287
383 5 0.138656 0.841298 0.158187
384 5 0.0212296 0.636362 0.961251
385 3 0.812332 0.139647 0.92681
386 5 0.265296 0.0238513 0.273978
387 6 0.777759 0.3291 0.941204
388 5 0.444139 0.86606 0.863039
389 5 0.0404513 0.913434 0.188705
390 3 0.760032 0.978531 0.18049
391 3 0.341465 0.545224 0.780652
392 5 0.618557 0.763609 0.0799735
393 4 0.96497 0.713071 0.441771
394 3 0.269178 0.82614 0.257203
395 4 0.902458 0.646971 0.762834
396 1 0.0516946 0.80935 0.9667
397 6 0.270461 0.175799 0.172527
398 5 0.937676 0.934671 0.024934
399 2 0.910716 0.994899 0.402249
400 4 0.672104 0.19699 0.555436
401 5 0.17974 0.49799 0.707647
402 4 0.528552 0.720389 0.625037
403 3 0.988388 0.295895 0.426116
404 4 0.128635 0.468816 0.0477813
405 4 0.145622 0.021012 0.900421
406 5 0.0181006 0.908457 0.334374
407 3 0.812819 0.898185 0.779047
408 4 0.415671 0.983841 0.641962
409 1 0.470532 0.634937 0.535653
410 5 0.307107 0.966702 0.662287
411 4 0.92105 0.906923 0.704565
412 4 0.0624208 0.940571 0.35821
413 3 0.014248 0.066815 0.990491
414 4 0.6732 0.0410987 0.668951
415 3 0.917903 0.931334 0.253709
416 6 0.700382 0.404851 0.374859
417 5 0.443254 0.214865 0.65032
418 6 0.361721 0.842155 0.322716
419 3 0.232005 0.879072 0.659191
420 4 0.00997992 0.182121 0.168581
421 5 0.0497724 0.788608 0.651017
422 3 0.831389 0.0758626 0.625031
423 3 0.178781 0.0587056 0.26386
424 7 0.894254 0.625474 0.0223246
425 4 0.396957 0.198902 0.342328
426 4 0.90468 0.546599 0.423305
427 2 0.477726 0.809553 0.786393
428 3 0.0868267 0.182015 0.495254
429 5 0.100422 0.406539 0.49026
430 4 0.351729 0.314648 0.323213
431 5 0.0651864 0.0292254 0.933315
432 4 0.919916 0.889018 0.135365
433 4 0.0424754 0.331376 0.18139
434 4 0.900928 0.4171 0.11641
435 2 0.636733 0.764137 0.477118
436 4 0.181736 0.146982 0.767582
437 6 0.227944 0.294147 0.239657
438 4 0.890359 0.669802 0.236466
439 3 0.967802 0.777617 0.779817
440 3 0.0139381 0.802206 0.1388
441 7 0.990962 0.236515 0.037001
442 3 0.216755 0.386066 0.901497
443 3 0.777079 0.691799 0.864847
444 5 0.0442945 0.745448 0.440207
445 5 0.0839237 0.751337 0.779384
446 4 0.227997 0.866375 0.854435
447 4 0.938079 0.270034 0.0737062
448 5 0.0821287 0.0521798 0.230542
449 5 0.16855 0.669682 0.373934
450 5 0.850634 0.442826 0.56459
451 4 0.0873244 0.795697 0.550351
452 4 0.564767 0.773735 0.85076
453 3 0.0279956 0.758785 0.169707
454 5 0.0942031 0.84771 0.739562
455 5 0.334189 0.76599 0.627443
456 3 0.21835 0.492902 0.942834
457 2 0.242594 0.978759 0.780823
458 5 0.509462 0.763409 0.654442
459 4 0.080849 0.98648 0.694659
460 5 0.441725 0.647099 0.331401
461 3 0.29435 0.264761 0.0797206
462 2 0.494625 0.941851 0.294061
463 4 0.920323 0.351576 0.432122
464 5 0.251464 0.808697 0.485178
465 4 0.140941 0.0997871 0.937454
466 2 0.642634 0.247829 0.29565
467 4 0.965951 0.114659 0.108741
468 3 0.878121 0.0845429 0.325911
469 4 0.288971 0.406398 0.27943
470 2 0.676748 0.0139565 0.642285
471 6 0.689018 0.568998 0.570031
472 4 0.929729 0.871292 0.45399
473 3 0.710301 0.0960429 0.781623
474 4 0.659273 0.74597 0.190575
475 4 0.905903 0.733834 0.103398
476 3 0.468537 0.483601 0.141174
477 3 0.208439 0.618129 0.408828
478 3 0.488627 0.973603 0.532265
479 3 0.871063 0.562364 0.937336
480 5 0.879652 0.525349 0.384114
481 5 0.713519 0.613515 0.569653
482 4 0.222214 0.882564 0.0283204
483 5 0.144561 0.456297 0.352572
484 5 0.903751 0.808103 0.474002
485 6 0.281665 0.371009 0.698265
486 4 0.0953067 0.385448 0.505446
487 4 0.187699 0.344079 0.237057
488 3 0.060829 0.353109 0.952916
489 4 -0.000109486 0.426583 0.112991
490 4 0.410756 0.454032 0.238279
491 4 0.83558 0.244397 0.42955
492 3 0.00656632 0.0288777 0.270908
493 6 0.912224 0.588065 0.925046
494 4 0.197959 0.16743 0.493988
495 6 0.210049 0.413992 0.48731
496 6 0.158115 0.923703 0.558249
497 3 0.452325 0.888269 0.0842772
498 5 0.459126 0.510316 0.546958
499 3 0.794415 0.106143 0.428563
500 3 0.956247 0.954672 0.324417
501 4 0.470105 0.109942 0.145041
502 4 0.931932 0.498207 0.545216
503 3 0.960041 0.476301 0.779544
504 6 0.105607 0.594892 0.629473
505 5 0.19349 0.223647 0.19933
506 3 0.136244 0.120466 0.444561
507 3 0.00581738 0.899059 0.129128
508 3 0.152821 0.924189 0.530774
509 4 0.663431 0.986272 0.227524
510 3 0.516413 0.146435 0.988445
511 5 0.854641 0.984749 0.964782
512 6 0.7785 0.0934462 0.735115
513 3 0.654435 0.692177 0.188216
514 3 0.079385 0.0172635 0.660001
515 5 0.367779 0.210145 0.571554
516 3 0.933265 0.322829 0.414801
517 5 0.88195 0.645051 0.796026
518 6 0.881869 0.712701 0.436268
519 3 0.616914 0.745141 0.771931
520 3 0.820356 0.808091 0.795687
521 4 0.11747 0.379537 0.00875668
522 5 0.626875 0.9508 0.0855243
523 5 0.706627 0.679256 0.876881
524 4 0.595288 0.530452 0.881885
525 5 0.0828363 0.586185 0.760884
526 4 0.501104 0.72966 0.211869
527 3 0.768088 0.0105114 0.822053
528 2 0.803729 0.350724 0.12231
529 6 0.997345 0.555394 0.785005
530 3 0.69838 0.704564 0.53276
531 4 0.220468 0.85984 0.266562
532 3 0.290972 0.865908 0.809687
533 3 0.896289 0.231946 0.295793
534 3 0.144599 0.942748 0.0990796
535 3 0.952447 0.402463 0.175133
536 4 0.640573 0.276715 0.889394
537 3 0.280413 0.364966 0.718976
538 4 0.380916 0.522049 0.128679
539 3 0.274563 0.928179 0.914536
540 2 0.779215 0.453352 0.884913
541 3 0.227646 0.87026 0.547989
542 4 0.486801 0.00472933 0.0825967
543 3 0.114095 0.121021 0.0353347
544 3 0.0337381 0.560033 0.0192582
545 5 0.717825 0.78816 0.73224
546 5 0.505973 0.549352 0.944229
547 5 0.693224 0.241111 0.235445
548 5 0.398642 0.154555 0.929299
549 5 0.973393 0.135618 0.0307859
550 4 0.108111 0.195657 0.333042
551 4 0.180049 0.872454 0.421616
552 3 0.951487 0.484061 0.30373
553 3 0.084716 0.102346 0.991383
554 3 0.0275932 0.624531 0.36312
555 4 0.42529 0.593732 0.588372
556 3 0.961664 0.205064 0.100021
557 4 0.619443 0.148499 0.496616
558 4 0.715341 0.41994 0.747852
559 3 0.0891901 0.311602 0.374923
560 3 0.249424 0.115786 0.668719
561 4 0.720574 0.496272 0.575385
562 4 0.725037 0.0282767 0.565197
563 3 0.618252 0.0136791 0.982622
564 2 0.516963 0.312854 0.876527
565 5 0.603322 0.280404 0.419168
566 5 0.407171 0.220151 0.95083
567 3 0.757048 0.462202 0.595599
568 3 0.164211 0.821196 0.76973
569 4 0.352247 0.26825 0.650829
570 4 0.483187 0.819534 0.641768
571 4 0.561447 0.517101 0.0517348
572 5 0.339192 0.583735 0.940111
573 3 0.452626 0.166588 0.857471
574 5 0.123177 0.424378 0.660877
575 3 0.78699 0.744239 0.989067
576 4 0.405931 0.550417 0.765678
577 3 0.537146 0.88608 0.6031
578 3 0.404551 0.718074 0.206762
579 3 0.23002 0.129448 0.172493
580 3 0.402832 0.262839 0.290788
581 3 0.631547 0.384678 0.879906
582 2 0.0466327 0.496787 0.406964
583 4 0.814041 0.351733 0.654845
584 4 0.199643 0.620797 0.566885
585 4 0.377167 0.735729 0.00306889
586 3 0.00819181 0.688165 0.151302
587 4 0.746933 0.0486668 0.538472
588 4 0.126784 0.463021 0.908904
589 6 0.528819 0.285156 0.735369
590 2 0.758928 0.028306 0.251947
591 3 0.0015932 0.533756 0.965207
592 5 0.934515 0.959442 0.905851
593 3 0.121205 0.403856 0.666966
594 4 0.216602 0.796489 0.814674
595 5 0.913274 0.0448523 0.107556
596 5 0.0753611 0.474076 0.796402
597 3 0.885967 0.0864343 0.885882
598 3 0.202056 0.0107107 0.289612
599 4 0.705152 0.571368 0.390531
600 3 0.432487 0.875595 0.293275
601 3 0.417838 0.221696 0.757405
602 4 0.894954 0.108805 0.299736
603 5 0.738322 0.192896 0.35693
604 4 0.57859 0.52396 0.662412
605 4 0.982147 0.720449 0.758595
606 3 0.536298 0.412792 0.897566
607 4 0.0559526 0.673339 0.107876
608 4 0.43111 0.746822 0.460246
609 3 0.78515 0.925281 0.826142
610 5 0.331245 0.909109 0.645498
611 5 0.320808 0.805225 0.670394
612 2 0.939576 0.0375671 0.546318
613 4 0.54572 0.291053 0.62709
614 5 0.383043 0.77428 0.924755
615 5 0.359603 0.412575 0.644861
616 3 0.482466 0.343751 0.176874
617 4 0.314077 0.564761 0.426836
618 5 0.894824 0.484536 0.61668
619 4 0.681585 0.574971 0.610479
620 5 0.325703 0.274887 0.0464357
621 3 0.370216 0.478905 0.0906565
622 5 0.75085 0.366074 0.177243
623 4 0.308229 0.552008 0.0917096
624 4 0.491308 0.941587 0.620672
625 5 0.939012 0.75145 0.503054
626 2 0.645878 0.841294 0.0493166
627 4 0.322317 0.322528 0.168496
628 4 0.846469 0.764461 0.384998
629 4 0.731189 0.264057 0.64073
630 4 0.413075 0.633497 0.496639
631 4 0.598863 0.0312308 0.299594
632 3 0.132264 0.207966 0.36513
633 3 0.606123 0.00483395 0.920428
634 6 0.81849 0.544486 0.719351
635 4 0.613417 0.199946 0.0314429
636 5 0.634337 0.129728 0.435124
637 3 0.69815 0.374661 0.423658
638 4 0.283571 0.59582 0.94924
639 4 0.184755 0.552892 0.666062
640 4 0.815851 0.349048 0.0192961
641 4 0.683294 0.199993 0.0827364
642 2 0.584129 0.879494 0.480529
643 4 0.321785 0.424315 0.82188
644 4 0.622792 0.696332 0.517537
645 4 0.294456 0.138383 0.523889
646 5 0.0874904 0.958745 0.650565
647 4 0.963471 0.435063 0.434265
648 4 0.787051 0.914223 0.806072
649 5 0.695922 0.224119 0.327479
650 3 0.77493 0.757747 0.551264
651 4 0.181536 0.0331972 0.391242
652 2 0.295922 0.18372 0.308135
653 3 0.805705 0.816252 0.380681
654 4 0.327149 0.678513 0.613541
655 4 0.643431 0.649291 0.255867
656 4 0.270611 0.938053 0.0105614
657 3 0.039495 0.21568 0.453166
658 5 0.46829 0.399753 0.57749
659 6 0.456682 0.0269051 0.844529
660 4 0.466508 0.0128308 0.156232
661 6 0.847421 0.00115562 0.63245
662 3 0.732235 0.576315 0.683182
663 5 0.244013 0.156669 0.450786
664 4 0.880612 0.637251 0.203797
665 3 0.714166 0.981654 0.441416
666 4 0.641179 0.685305 0.90242
667 3 0.939712 0.562444 0.448516
668 3 0.378793 0.746983 0.558097
669 5 0.703553 0.545236 0.556278
670 3 0.216339 0.525886 0.410564
671 5 0.650506 0.747391 0.279925
672 5 0.871822 0.672234 0.0196069
673 3 0.433894 0.556272 0.633827
674 3 0.776984 0.345978 0.69732
675 6 0.14439 0.252667 0.0774573
676 5 0.404014 0.680904 0.738682
677 3 0.475883 0.61869 0.434852
678 4 0.977891 0.99256 0.408748
679 4 0.712509 0.65528 0.374429
680 4 0.670205 0.220405 0.274831
681 3 0.509006 0.55721 0.020248
682 3 0.481972 0.209803 0.135702
683 2 0.470574 0.619172 0.898706
684 5 0.674751 0.917538 0.413963
685 2 0.480914 0.636269 0.24343
686 4 0.289413 0.84248 0.392731
687 3 0.0420358 0.580014 0.697754
688 2 0.907877 0.635342 0.607762
689 5 0.386289 0.787767 0.437357
690 5 0.0816882 0.978444 0.935083
691 6 0.281902 0.839074 0.142666
692 5 0.631798 0.727305 0.0962206
693 4 0.381581 0.480468 0.708485
694 5 0.479684 0.305892 0.60094
695 3 0.457769 0.683169 0.321267
696 5 0.398194 0.157692 0.176613
697 3 0.191603 0.815767 0.213215
698 5 0.172266 0.0307267 0.178478
699 4 0.539896 0.890884 0.448288
700 5 0.275133 0.668373 0.721456
701 5 0.0974223 0.650049 0.271391
702 5 0.33807 0.450581 0.25326
703 4 0.666735 0.829232 0.317878
704 5 0.477948 0.830927 0.876032
705 4 0.993318 0.25097 0.5703
706 3 0.289313 0.486957 0.761165
707 2 0.325777 0.973994 0.656332
708 4 0.930626 0.281741 0.268038
709 3 0.112281 0.411082 0.898157
710 4 0.675439 0.928001 0.937818
711 4 0.659933 0.0763662 0.904385
712 3 0.471674 0.106524 0.334748
713 3 0.560855 0.58138 0.167455
714 5 0.387918 0.273852 0.724085
715 3 0.939615 0.619661 0.358099
716 6 0.655595 0.819029 0.591867
717 3 0.178963 0.810017 0.995395
718 3 0.427531 0.828556 0.710706
719 4 0.289172 0.940523 0.938544
720 2 0.306347 0.103495 0.324278
721 4 0.622691 0.522693 0.45377
722 3 0.657562 0.56157 0.0296842
723 4 0.909936 0.456839 0.169797
724 5 0.200553 0.696869 0.816431
725 3 0.8541 0.883746 0.245353
726 4 0.579771 0.300104 0.0851596
727 4 0.697722 0.745593 0.655367
728 4 0.358727 0.458593 0.344118
729 3 0.27503 0.126823 0.408967
730 4 0.802091 0.520253 0.377195
731 3 0.760896 0.207503 0.17565
732 3 0.344109 0.52427 0.655922
733 2 0.0673495 0.326369 0.686507
734 4 0.490599 0.00412891 0.0388714
735 5 0.504242 0.681182 0.548234
736 3 0.435781 0.81911 0.0110703
737 5 0.711605 0.812204 0.0428153
738 5 0.811289 0.233039 0.126384
739 4 0.847729 0.834096 0.754492
740 4 0.743462 0.883379 0.694561
741 4 0.482979 0.310448 0.779213
742 2 0.249922 0.188925 0.643584
743 4 0.0170414 0.77204 0.316335
744 3 0.671643 0.576548 0.243188
745 3 0.8052 0.642997 0.202385
746 2 0.84588 0.204537 0.118577
747 5 0.667099 0.0164984 0.442352
748 2 0.0376029 0.923971 0.259133
749 3 0.893094 0.0487232 0.727329
750 5 0.592063 0.353244 0.594541
751 3 0.9454 0.049512 0.0113458
752 2 0.274199 0.844583 0.0827077
753 5 0.243625 0.713443 0.864596
754 6 0.27588 0.325425 0.924268
755 5 0.549675 0.73352 0.445258
756 3 0.659313 0.130593 0.0303821
757 5 0.919425 0.725274 0.15801
758 5 0.170303 0.674817 0.891506
759 4 0.205539 0.364358 0.214869
760 4 0.441438 0.254687 0.317969
761 3 0.438571 0.170371 0.410343
762 3 0.085591 0.375722 0.160309
763 5 0.984671 0.814014 0.0389105
764 5 0.5384 0.878246 0.192962
765 6 0.280482 0.62807 0.832625
766 4 0.774732 0.475222 0.888811
767 3 0.28144 0.275992 0.155962
768 5 0.915913 0.422974 0.843513
769 3 0.406322 0.371741 0.439657
770 6 0.834753 0.296519 0.701317
771 6 0.137119 0.450772 0.14866
772 4 0.102233 0.0442548 0.215523
773 1 0.0943334 0.661065 0.501499
774 3 0.12138 0.223738 0.627495
775 4 0.107719 0.690146 0.491884
776 4 0.634723 0.617677 0.47449
777 3 0.596347 0.434695 0.457243
778 4 0.742399 0.554529 0.460441
779 3 0.530602 0.691866 0.333944
780 3 0.527833 0.788975 0.958597
781 2 0.665033 0.221521 0.340725
782 5 0.359384 0.325985 0.694554
783 3 0.0243345 0.562893 0.715686
784 5 0.213635 0.475421 0.669709
785 4 0.380617 0.901905 0.910981
786 2 0.714457 0.670623 0.707336
787 5 0.136736 0.396224 0.799542
788 5 0.828328 0.333472 0.737193
789 5 0.344138 0.0560525 0.842522
790 3 0.0811166 0.822826 0.850278
791 4 0.346984 0.823207 0.807767
792 3 0.800786 0.337861 0.0299162
793 2 0.249543 0.0727738 0.299044
794 4 0.433951 0.405719 0.954599
795 3 0.705976 0.213158 0.00534532
796 4 0.437508 0.762097 0.854645
797 4 0.674488 0.810075 0.509442
798 5 0.358826 0.180261 0.593962
799 6 0.255107 0.462205 0.741211
800 3 0.74835 0.980743 0.20654
801 6 0.994753 0.537564 0.864747
802 4 0.676162 0.297672 0.615349
803 4 0.0836195 0.338941 0.171316
804 4 0.413276 0.770128 0.586104
805 4 0.449125 0.220574 0.0723403
806 5 0.972106 0.131989 0.993243
807 4 0.885072 0.0611938 0.741686
808 2 0.25092 0.697365 0.208165
809 5 0.0025923 0.463043 0.186235
810 3 0.684423 0.797017 0.25805
811 5 0.250885 0.101092 0.854596
812 5 0.707716 0.292039 0.812179
813 4 0.00110003 0.0480822 0.339088
814 4 0.498456 0.61968 0.601859
815 5 0.500161 0.189574 0.216781
816 4 0.431718 0.0700281 0.168405
817 4 0.281019 0.227438 0.470093
818 5 0.932543 0.72776 0.541548
819 4 0.681507 0.523234 0.995979
820 3 0.636902 0.783225 0.876213
821 4 0.933603 0.00791124 0.294335
822 4 0.703868 0.686999 0.283537
823 5 0.137163 0.787819 0.364962
824 4 0.854029 0.0687423 0.0659155
825 5 0.726789 0.13091 0.353326
826 5 0.882212 0.551802 0.496748
827 5 0.237235 0.0133666 0.743039
828 2 0.59847 0.742101 0.780304
829 5 0.0657933 0.520585 0.247002
830 4 0.248364 0.160587 0.839525
831 3 0.919323 0.904472 0.81207
832 5 0.505461 0.365141 0.97973
833 4 0.446698 0.64345 0.711198
834 4 0.688945 0.830845 0.143937
835 4 0.601115 0.73913 0.705602
836 4 0.707419 0.891344 0.913299
837 4 0.900046 0.0969647 0.270818
838 5 0.741567 0.939676 0.292511
839 5 0.302763 0.524968 0.393597
840 3 0.453581 0.289704 0.37318
841 5 0.652222 0.440494 0.701074
842 5 0.787857 0.820174 0.476573
843 3 0.0882413 0.565817 0.101295
844 4 0.65154 0.218242 0.0424512
845 5 0.888858 0.83877 0.764571
846 4 0.930712 0.296554 0.671715
847 3 0.891817 0.473798 0.889471
848 5 0.193288 0.72658 0.79275
849 4 0.671985 0.705825 0.772014
850 3 0.369951 0.935936 0.299142
851 5 0.447041 0.157661 0.973325
852 4 0.292274 0.756817 0.20029
853 5 0.145149 0.311997 0.0252114
854 7 0.0681277 0.721451 0.7094
855 3 0.422303 0.198149 0.361273
856 5 0.965393 0.0279872 0.257331
857 3 0.326535 0.528781 0.741035
858 4 0.665703 0.975158 0.779712
859 5 0.618114 0.862112 0.399946
860 6 0.721656 0.173795 0.160215
861 4 0.97142 0.946686 0.526542
862 3 0.988517 0.0239446 0.734027
863 5 0.0490431 0.713605 0.964715
864 4 0.681825 0.751447 0.285593
865 3 0.664285 0.915609 0.042826
866 4 0.457708 0.819632 0.756106
867 2 0.811494 0.661621 0.556785
868 5 0.726659 0.803865 0.745582
869 4 0.574444 0.162066 0.734447
870 2 0.0776953 0.416804 0.987099
871 4 0.623917 0.726579 0.529694
872 2 0.93564 0.276667 0.812186
873 4 0.893461 0.887774 0.766734
874 3 0.528952 0.840159 0.190046
875 2 0.726991 0.465833 0.146742
876 5 0.756007 0.695264 0.242481
877 5 0.127244 0.0943731 0.375115
878 7 0.813842 0.816914 0.743658
879 5 0.949856 0.0837453 0.347139
880 5 0.254674 0.374219 0.990008
881 5 0.351158 0.482915 0.215095
882 5 0.317341 0.229251 0.206856
883 5 0.503419 0.223403 0.236454
884 4 0.413859 0.572706 0.92064
885 5 0.107617 0.431549 0.829607
886 4 0.450739 0.592203 0.974972
887 4 0.426678 0.944045 0.0081236
888 4 0.273552 0.471964 0.695445
889 4 0.35854 0.291734 0.470114
890 4 0.404973 0.0383338 0.406809
891 4 0.860787 0.868716 0.191119
892 5 0.266299 0.646276 0.834972
893 5 0.671897 0.0750892 0.202395
894 3 0.986618 0.937402 0.443168
895 4 0.619419 0.72247 0.393561
896 5 0.829621 0.720411 0.891277
897 3 0.936405 0.261075 0.258173
898 4 0.831922 0.0948922 0.844937
899 5 0.309132 0.0538019 0.937998
900 4 0.636431 0.527483 0.437628
901 4 0.223447 0.732458 0.114062
902 2 0.531828 0.686484 0.937479
903 4 0.53057 0.634562 0.155913
904 5 0.0860227 0.511716 0.243472
905 5 0.147419 0.59597 0.658549
906 5 0.655224 0.591694 0.0468617
907 4 0.498777 0.694175 0.463788
908 4 0.667411 0.0989307 0.551144