LAMMPS data file via write_data, version 10 Feb 2015, timestep = 10211

10500 atoms
7 atom types

0.0000000000000000e+00 4.7130000000000003e+01 xlo xhi
0.0000000000000000e+00 4.7130000000000003e+01 ylo yhi
0.0000000000000000e+00 4.7130000000000003e+01 zlo zhi

Masses

1 0.356818
2 0.40772
3 0.463247
4 0.523599
5 0.588977
6 0.659584
7 0.735619

Pair Coeffs # morse

1 1 33 0.88
2 1 33 0.92
3 1 33 0.96
4 1 33 1
5 1 33 1.04
6 1 33 1.08
7 1 33 1.12

Atoms # atomic

2902 5 1.7259473797624636e+01 1.3181765383960746e+00 4.1787464268205801e-02 0 1 0
3389 5 1.9716485169901741e+01 5.9850190364715228e-01 6.6194490354130442e-01 0 1 0
4273 2 3.3056893176551206e+01 3.9040179445515782e-01 5.0352232841756805e-01 0 1 1
4922 5 4.0108259493390321e+01 1.6962961634602897e-02 1.2052530777197390e-01 0 0 0
9786 4 9.2983005504829812e+00 1.0248586955794197e+00 9.8219234774010122e-01 0 0 0
9540 4 1.0283799722168739e+01 1.4886640183181779e+00 4.1296325971025033e-02 0 0 0
3145 4 1.9864686736994592e+01 2.1539728139261962e+00 3.5115381848286303e-01 0 0 1
261 3 2.5590834809377775e+01 1.1353323888964142e+00 1.4162241449217108e-01 0 0 1
108 3 4.6403844156330351e+01 9.3159784474442520e-01 7.4620660893865254e-01 -1 1 0
5516 5 3.3426879655223294e+00 2.4806960783079863e+00 4.5914973692848904e-01 0 1 0
7838 3 1.5378052213743853e+01 2.5765148578444990e+00 5.3676640140751042e-01 0 1 0
1616 6 3.4136694000253051e+01 2.8891931340225061e+00 4.1986881028001255e-01 0 0 1
2527 4 3.5731110530867795e+01 2.1236351375879443e+00 4.8640080669561170e-01 0 1 1
6967 3 3.6729794479177485e+01 2.3296432667453355e+00 6.3257500008679768e-01 0 0 1
1208 3 9.9246066860135507e+00 3.0270520648096322e+00 6.0799954547598634e-01 0 0 1
1629 6 8.9427854132938194e+00 4.6425314729970699e+00 8.6625029113541685e-01 0 0 0
6974 3 2.0767593625442970e+01 5.7890517684764102e+00 8.3231768701810804e-01 0 1 0
4697 6 2.3623581335038811e+01 5.5655094408137460e+00 4.5650165519527791e-01 0 0 0
1706 2 2.8337086154343879e+01 5.5613253046790483e+00 7.1993350416861113e-01 0 1 1
2783 5 1.8050070136838581e+01 6.4094294218408212e+00 5.8441521959821485e-01 0 0 1
3579 5 2.0665696938853110e+01 6.6958186309548200e+00 4.3089558795995314e-01 0 0 0
36 3 2.2696023937589558e+01 6.6747555152107267e+00 7.6663955580536480e-01 0 0 1
10197 4 3.1668093224832109e+01 5.9757722851723258e+00 6.8525554894716312e-01 0 1 1
6381 2 8.1579255589031305e+00 7.3236014642873810e+00 8.2873945737093679e-01 0 0 0
1450 5 9.7432745477125078e+00 7.1142069690620158e+00 2.4636224323961112e-01 0 0 1
3590 4 3.3485373150254837e+01 7.0062863189762759e+00 1.0767101010850313e-01 0 0 1
1533 4 4.4763569567505023e+01 6.8697305754646676e+00 9.6486718294595009e-01 -1 1 1
7373 2 1.4303079238638189e+01 7.9004977876020339e+00 3.2617172794711047e-01 0 0 0
3716 6 3.4147731101564503e+01 8.4924310366940059e+00 4.7857232561513968e-01 0 0 0
9467 5 4.5926077083976089e+01 7.8321567942603769e+00 6.7585098580177672e-01 0 0 1
8722 4 4.2627574514973269e+01 3.9534959096670825e+01 1.9843122564992685e-01 0 0 1
8419 5 1.6299885853113949e+01 8.5708291335711273e+00 8.6477752514480011e-01 0 0 1
488 3 4.3180262282833574e+01 1.8764988876169340e+01 3.2194405694930102e-02 -1 0 1
6673 4 3.0591287617387138e+01 9.0054076375219019e+00 9.5899451839914085e-01 0 0 0
10478 5 2.2852092492877979e+01 9.6580988952596876e+00 2.0509940281152908e-01 0 0 0
8691 4 3.1530368596707067e+01 9.5776897750796977e+00 7.8232462576463202e-01 0 0 1
2655 4 3.3847282260379181e+01 9.6394658791001859e+00 5.9293855436359955e-01 0 0 1
8411 5 4.3274233118800538e+01 9.9285928175401317e+00 6.1505877762602801e-01 0 0 0
3102 4 2.1355433198263416e+01 1.0658135722495333e+01 4.4813706386281821e-01 0 0 0
4615 3 1.4825819996681742e+00 1.2000175399603938e+01 7.3653819655155262e-01 0 0 1
7614 3 7.1841096947989387e+00 1.1573549679560521e+01 6.1432470415937790e-01 0 0 1
6255 5 4.6437165682690789e+01 4.6343348703236629e+01 2.9172983836269616e-02 -1 -1 1
1471 5 2.0044339315720485e+01 1.2103265146371765e+01 1.0909602156913347e+00 0 0 0
2827 4 4.5238842615177873e+01 2.6087153524921227e+01 1.7285551773961794e-02 -1 0 0
2715 5 3.0294229523255325e+01 1.1535452486157077e+01 1.0678871535525605e-01 0 0 1
2526 3 3.7347434902970583e+01 1.1387728730122832e+01 9.7342553041128677e-01 0 0 1
5368 5 4.0759535813940317e+01 1.1459385651529303e+01 3.3697271790712308e-01 0 0 1
6784 5 4.5363374304235215e+01 1.1543181798246096e+01 9.3066670766287907e-01 -1 0 1
3140 4 1.0136046342187273e+01 1.2732319526571068e+01 1.5579491897994560e-01 0 0 0
7994 4 2.3877245152025097e+01 1.3393150821270149e+01 2.4113185705418710e-01 0 0 0
5385 4 3.7485512980075626e+01 1.2337933392096213e+01 7.3439480007591940e-01 0 0 1
465 4 1.1912182986401415e+01 1.3815401352992188e+01 4.8769960737363260e-01 0 0 1
3727 6 3.1387983106325379e+01 5.4034468931610714e-02 2.2987086507757610e+01 0 0 0
8137 4 2.8879264120700995e+01 1.3959412235124971e+01 6.3886395522865436e-01 0 0 0
4014 3 3.2142175384987802e+01 1.4167251688044594e+01 1.1046304793932142e-01 0 0 0
2855 4 8.1341427999347484e+00 1.5004878303413832e+01 7.7300595808490069e-01 0 0 0
1498 3 2.0780440242699765e+01 1.5130078791355947e+01 4.1101845952541177e-01 0 1 1
1633 3 2.1788472424471980e+01 1.4426477678639856e+01 1.0561148369922067e+00 0 0 1
1484 4 6.1959172586512992e+00 1.5564861710220166e+01 4.3341403127965791e-02 0 0 1
8715 6 1.3118809939689918e+01 1.5544068424327103e+01 9.2024658526937464e-01 0 0 1
4974 3 2.4935987713001719e+01 1.4855639361845610e+01 8.4122160250568401e-01 0 0 1
4110 5 3.3480171288482772e+01 1.5903399083161627e+01 7.6554170171306646e-01 0 0 1
806 5 4.3827236508667973e+01 1.5883322799685656e+01 1.1052835415010847e+00 0 0 1
5997 3 2.1747784143356220e+01 1.6492161248498423e+01 5.1886006240281224e-01 0 0 1
3059 5 2.7590713547901558e+01 1.6675237918280249e+01 6.9367806129250043e-01 0 0 1
10110 5 3.4382052726669265e+01 1.6460928592762798e+01 7.7454633826859215e-02 0 0 1
3595 5 4.3191508323703395e+01 1.7014548391334678e+01 7.8561065977470979e-01 -1 0 1
7392 3 8.2363647345989506e+00 1.7742050630134745e+01 3.7501613095953162e-01 0 0 0
8707 4 9.7726861842783634e+00 1.6940033717425287e+01 1.1241498870813023e+00 0 0 0
2949 5 1.7668021347073349e+01 1.7205982793920647e+01 1.3261457590464124e-01 0 0 0
6827 6 2.0885345116363368e+01 1.7002594865550265e+01 7.8512420718196796e-01 0 0 0
5269 4 7.6552533078288896e+00 3.9707113753256522e+01 1.3585657648781246e-01 0 0 0
8798 4 2.9628884122449005e+01 1.7329562576347719e+01 3.8236437879036866e-01 0 0 0
3063 5 3.5941822000825972e+01 1.7575975925353465e+01 1.0725022848725496e+00 0 0 1
4246 3 2.3484712656742641e+01 2.9599535155539566e+01 1.4248388754920183e-01 0 0 0
5900 4 3.7083528386015168e+01 1.7495889066823963e+01 8.3960119336243966e-01 0 0 1
1140 3 4.1657457435238207e+01 1.8290783933894900e+01 5.8843686126645178e-01 -1 1 0
5825 5 6.0013251221561559e+00 1.8704811877255633e+01 8.0610686464806916e-02 0 0 0
5925 4 8.8552580812458590e+00 1.9594086273460501e+01 5.8714142460308238e-01 0 0 1
5829 4 2.4875497659846378e+01 1.9448061926075525e+01 7.1033704381607232e-01 0 0 1
4185 3 2.5796059682457834e+01 1.9652358691162377e+01 9.9212887880237877e-01 0 0 1
1776 4 4.0959679879441659e+01 1.9557193339843760e+01 2.3318487465668564e-01 0 0 1
5912 3 5.2026231402537491e+00 2.0851649511004506e+01 1.8881191278699028e-01 0 0 1
563 3 2.0700887244905342e+01 2.0053413671609928e+01 3.9249226958359784e-01 0 0 1
819 4 3.4590403074585275e+01 2.0135486910731629e+01 2.4983979954873073e-02 0 0 1
8189 3 3.9879797092785331e+01 1.9750977773753380e+01 1.2548396030957651e+00 0 0 0
6280 2 4.0630802444640203e+01 2.0447196003787067e+01 6.0161351429726018e-01 0 0 1
150 3 4.4066983730237688e+01 1.9847574881867995e+01 5.5131282937666248e-01 0 0 1
3936 4 3.8465006475255436e+01 2.1719884057952996e+01 4.0698105010441854e-01 0 0 1
8680 3 1.3527204306398021e+01 2.0918356734597271e+01 9.4954857639168633e-01 0 0 0
1054 5 3.7158199234949265e+01 2.1752279783036244e+01 1.6149571882816502e-01 0 0 1
2848 3 4.7063169133647243e+01 2.2388110826071632e+01 1.1135626665180958e+00 -1 0 0
3593 3 6.9096551610333217e+00 2.2322445082225538e+01 8.0593015004355351e-01 0 0 0
1138 6 8.0762551887089860e+00 2.1265390176507967e+01 8.6972078521678353e-01 0 0 0
7265 4 2.6791922285247772e+01 2.3029504447523088e+01 5.1809734958410825e-01 0 0 1
5975 5 4.1674665201358572e+01 2.1603563958352591e+01 8.9264859717744605e-01 0 0 0
10060 3 4.4066473121570638e+01 2.2952759320075305e+01 5.8191558982795244e-01 0 0 1
9900 4 3.6084880086576341e+01 2.2293283444425395e+01 7.7387723323564889e-02 0 0 0
7777 3 1.0593956062360096e+01 2.3768530476608216e+01 3.4973508049244711e-01 0 0 0
4867 3 4.4578421189939611e+01 2.4217190500098141e+01 4.3402911073283268e-01 0 0 1
9982 2 3.4732623721517903e+01 3.8068750777306398e+01 2.1267011472845779e-01 0 0 1
6387 5 4.1768185154713265e+01 1.1387725670271465e+01 6.0197206162555347e-02 0 0 1
7056 5 2.4248574100222953e+01 2.5489958103450576e+01 4.4197911094206843e-01 0 0 1
4349 3 1.3475345189879642e+01 2.6024744379268661e+01 1.0549416951836520e-01 0 0 1
2467 3 3.8346306078913777e+01 2.4687550147981753e+01 9.5717671325621922e-02 0 0 0
7483 3 1.2486530228773560e+01 2.6130970432952687e+01 9.8358424579346571e-01 0 0 0
8899 2 2.1814631787287478e+01 2.7695047661557510e+01 6.3550196311327301e-01 0 0 1
2329 7 2.2906850073840783e+01 2.6267540290999893e+01 5.9378776036595537e-01 0 0 0
9527 4 2.9424037952676025e+00 4.6137400265387669e+01 2.3272925605824625e+01 1 0 0
3273 4 5.9162486143818223e+00 2.8432983554319105e+01 9.3111245384457952e-01 1 0 0
5694 3 9.5083531482937946e+00 2.7394543666583459e+01 3.6204229596860815e-01 0 0 1
706 3 1.4556654168962307e+01 2.7982897914930231e+01 1.5965534308594612e-01 0 0 1
8353 3 4.6046876405122546e+01 4.5881426560554772e+01 2.3444468301518366e+01 -1 0 0
5039 5 6.6385811883357784e+00 4.1293792389917037e+01 2.3121542035464699e+01 0 0 0
6074 3 2.0641641431841999e+00 2.8008113884040423e+01 6.0472359189086167e-01 0 0 0
9126 3 1.0973977379681189e+01 2.8626336855191202e+01 5.6035255761718128e-01 0 0 1
3600 4 1.3673936242020433e+01 2.8732315503918503e+01 6.5478374113916271e-01 0 0 0
2487 3 3.8236212036207888e+01 2.8367139250522200e+01 2.9605953429216747e-01 0 0 0
106 5 3.6894446713479503e+01 4.5487938256510461e+01 2.3062704180392021e+01 -1 0 0
7627 5 1.1157377931021268e+01 2.9866835081239699e+01 6.9336273403758308e-01 0 0 0
6570 5 3.5411983993730246e+01 2.9025035615370005e+01 7.2686845370189190e-01 0 0 0
532 3 3.9546444314005583e+01 3.0410056697224277e+01 1.0318784468493071e-01 -1 0 1
9081 2 4.4974731558930166e+01 2.9850231496942289e+01 6.4744872922448715e-01 0 0 0
9794 5 5.8221400685750941e+00 3.0610892081120777e+01 3.3693293815090794e-03 0 0 1
9365 4 9.3133066719454654e+00 3.0632931117619179e+01 6.4728526066350420e-02 0 0 1
2357 4 2.5598480539058283e+01 2.9689205625797193e+01 6.0967604435316802e-01 0 0 0
5521 3 3.0928390785759369e+01 2.9856400546973177e+01 8.7661517535029698e-01 0 0 0
7523 3 4.1519846005143776e+01 3.0660986931829747e+01 1.4359391809231083e+00 0 0 1
5434 4 4.6270103004652135e+01 3.0819873344213562e+01 6.2082915298271413e-01 -1 0 0
6799 4 4.2868118051633290e+00 3.1494508922737815e+01 2.6304582858869152e-01 0 0 1
2419 4 3.6170228835419231e+01 4.4704174686035714e+01 2.3247927158595470e+01 0 0 0
9525 4 3.4546556746115328e+01 3.0704075086717985e+01 4.0444529811824076e-01 0 0 0
3684 7 3.9226379061864726e+01 3.1573072928356279e+01 4.8525213886903795e-01 0 0 0
6600 4 1.2623622330722068e+01 3.2848516876175992e+01 3.7599470228964793e-01 0 0 0
7695 3 2.1896738191927426e+01 3.1784825546357137e+01 1.9872416840181307e-02 0 0 1
2739 5 3.1752378090706507e+01 3.3148143480445718e+01 4.9503845448278716e-01 0 0 0
5408 3 7.0568385508695801e+00 1.6808796410917303e+01 1.3861140998015226e-01 0 0 1
3969 5 3.7115217037196103e+01 3.2236322531515100e+01 1.2024629546300195e-01 0 0 0
8963 4 4.0863143608085075e+01 3.2033420331935893e+01 1.0118421851860864e+00 0 0 0
9883 4 1.0777737998274555e+01 3.3716144629899730e+01 2.5133814292752454e-01 0 0 1
2500 5 3.2567571097978920e+01 4.5036949495152584e+01 2.2888871868035842e+01 0 0 0
3864 4 3.6267243364634453e+01 3.2762977027011829e+01 3.4697772881204025e-01 0 0 1
9707 4 3.7184720747748742e+01 3.4123000642542415e+01 1.2843240491421515e+00 -1 0 0
1330 2 3.8893984459974298e+01 3.3649739334677513e+01 8.1447662032714518e-01 0 0 1
5778 4 4.0776499955816593e-02 3.3798399761537908e+01 2.1039203215843552e-01 0 0 1
2791 2 6.9186270113921218e+00 3.3618642111213560e+01 1.3479199296464450e+00 0 -1 0
6651 4 1.5914459503978744e+01 3.5159128645588098e+01 5.8654241808903806e-01 0 0 0
3403 5 1.5242115009541697e+01 3.4029438819666950e+01 1.0681393683875563e-01 0 0 0
184 3 4.6570071387577840e+01 3.4796305548132530e+01 7.5485495041175055e-01 0 0 1
8073 4 1.4066841010977134e+01 2.7927460615856052e+00 2.3129350863761726e+01 0 0 0
9709 6 4.1965834230246992e+00 2.4783306697948298e+01 1.5795581954757573e-01 0 0 1
3614 5 4.4357722507146796e+01 3.5033400769824290e+01 3.5507484158251218e-01 0 0 1
9812 5 2.0104962010862857e+00 3.6228177677996477e+01 3.4323699941314145e-01 0 0 0
4468 5 6.6328626110751197e+00 3.6653027331002875e+01 1.1893295942436299e+00 0 0 0
7086 3 2.2806064288386477e+01 3.6567036644101023e+01 1.0229072461148379e+00 0 0 0
8188 2 2.6383485844062715e+01 3.6537730569827893e+01 6.0195083253888233e-02 0 0 0
5708 4 9.9429624328331734e+00 3.6417665378786864e+01 9.5666201393632844e-01 0 0 1
3408 1 2.6010932402543158e+01 3.7874256061061701e+01 4.0337039768423016e-01 0 0 0
7811 4 2.0445390310943061e+01 3.8016091792163685e+01 2.0938191649718974e-01 0 0 0
2987 4 2.4317371194016715e+01 3.7839275452706531e+01 1.3723999847277659e+00 0 0 1
3437 5 2.2103291196892958e+01 2.1163312963102864e+01 3.6327595221720227e-01 0 0 1
2285 2 3.1371303457345601e+01 3.7776404958063566e+01 5.6186253242202455e-01 0 0 0
1371 4 2.9636886795328774e+00 3.9423192364481025e+01 4.5005121290362332e-01 1 0 1
9442 6 1.1979746490170703e+01 3.8704695182564016e+01 4.2691817039821311e-01 0 0 0
7326 3 2.9679061380580276e+01 3.8911918733731952e+01 7.7640334829590307e-01 0 0 1
8212 3 4.6968225752090760e+00 3.9752324791541874e+01 3.1380132122832022e-01 0 0 1
2099 4 2.4720201582252663e+01 4.0150050177471627e+01 5.3445327317955937e-01 0 0 0
4504 4 2.0631638887804718e-01 4.1230816971033640e+01 1.0143761657582819e+00 0 0 1
8497 3 9.5081382207185161e+00 4.0190302496023961e+01 3.4326870453211722e-01 0 0 0
7686 4 2.4179299875445711e+01 4.1417921343161161e+01 1.1620473758555929e+00 0 -1 0
1649 5 6.8977328076816002e+00 4.1766352066698396e+01 4.6056055783062610e-01 0 0 0
9351 4 2.2234255992835838e+01 3.2156233071422207e+01 2.3223349999243524e+01 0 0 0
7155 4 1.8882891842063721e+01 4.1980959822006760e+01 1.9343199417012336e-01 0 0 0
69 3 2.5773217450243489e+01 4.2241281821136042e+01 1.4603045191776515e-01 0 0 0
7699 3 3.6308709256555218e+01 4.2530773019836467e+01 9.7649649141981498e-01 0 0 0
8088 5 4.1157896864321067e+01 4.1598999713133360e+01 7.6432120408872850e-01 0 0 0
9979 6 8.2616804639987829e-01 4.2280115600363338e+01 1.7538176128076941e-03 0 0 1
1362 4 2.6940479861662330e+00 4.2564008092298671e+01 1.1305649085875211e-01 0 0 0
3061 5 3.5088157517232744e+01 4.2668693299903588e+01 2.7506336041989349e-01 0 0 1
6418 5 4.6246575013468906e+01 4.3067622400780678e+01 9.3918064536040935e-01 -1 0 1
6422 4 7.9168158381529152e-01 4.3765860087995200e+01 2.8366019262041131e-01 0 -1 0
3197 5 1.5471068566894212e+01 4.3632656940860393e+01 2.2939343231676691e+01 0 0 0
1686 4 2.2877906797825137e+01 4.4134221573014322e+01 9.3170586243091580e-01 0 -1 0
5068 5 3.4532918649957956e+01 4.3600844646312574e+01 3.5470956980337365e-01 0 0 1
2653 4 4.7093906151868950e+01 4.3874038965172886e+01 8.4125003602549187e-01 -1 0 0
2825 3 1.9008016959220683e+01 4.4876129036984345e+01 2.4245847070172932e-01 0 0 0
9153 3 3.9328962388043799e+01 4.5416117736782482e+01 3.9268994455592551e-02 0 0 0
1918 5 3.3930595104416817e+01 4.2956698648151495e+01 2.3017784635549116e+01 0 0 0
44 4 8.2436731837896211e+00 4.5952577298412393e+01 4.5617706395619295e-01 0 0 0
3456 6 3.9472804995063804e+01 8.7838930622042568e+00 2.1352105208276441e-02 0 0 0
3852 4 4.3328507525379216e+01 4.6069574255528586e+01 4.8508145874999820e-01 0 0 1
1300 5 4.4372220533208221e+01 4.6081259359210769e+01 3.4594361632337306e-01 0 0 1
8495 5 4.6116543481326699e-01 4.6575575698146928e+01 7.3304570384998979e-01 1 0 0
8263 6 1.5263068837171236e+01 4.7006710043392609e+01 1.0145835571799844e+00 0 -1 1
1577 4 1.8391298204525537e+00 7.0222769240457339e-01 1.4811981281171831e+00 0 0 1
9418 5 1.2342267600353855e+01 2.1163805530836088e-02 1.4856118496439938e+00 0 0 1
6089 3 2.6189442213879765e+01 4.6902155864698472e+01 9.7648252998688212e-01 0 -1 0
6635 4 2.7811694076776096e+01 6.4737206515708814e-02 9.0640090703011489e-01 0 1 1
5146 4 2.8701228183586050e+01 8.0551312624095639e-01 1.1337933281579202e+00 0 1 0
2435 6 3.1118309443453665e+01 2.4803077683692457e-01 1.4123162234170967e+00 0 1 1
4249 3 3.7303556605764655e+01 7.3054970127128072e-01 9.1430880166580208e-01 0 1 0
2221 4 4.1551629998840852e+01 4.7112577648826317e+01 9.6774774565266619e-01 0 0 1
5901 4 8.0843968652161511e+00 7.2078233833111705e-01 1.7541429780737403e+00 0 0 0
6495 4 2.2390575763795155e+01 1.3768895300424961e+00 2.0176771019021014e+00 0 1 0
4328 4 2.7871727513277058e+01 1.3140296651366079e+00 1.3496157279622332e+00 0 1 1
2119 4 3.9284425482725361e+01 1.6136602782040064e+00 1.5634178914569017e+00 0 0 0
7278 4 4.7108730541809337e+01 1.8421250020675979e+00 9.5198755328848783e-01 0 0 0
9216 4 2.4581606717544272e+01 1.7552273003138308e+00 2.0762584216896869e+00 0 1 0
7914 4 2.6974225855435286e+01 2.1757727748457456e+00 1.2070216220509804e+00 0 0 1
8443 5 3.3280011606841590e+01 2.0606337176481975e+00 1.3860056026143128e+00 0 0 1
5245 4 3.5224368601308569e+01 1.9424761429517192e+00 2.0312567480675234e+00 0 0 1
10208 4 3.6552669280787065e+01 1.8151503240928122e+00 1.4594024495623039e+00 0 1 1
3451 6 4.2246785458957284e+01 2.1159624946636932e+00 1.0540649019229886e+00 0 0 1
5422 5 1.0522577339848842e+01 2.8391050540737703e+00 1.3594522672203422e+00 0 0 1
2066 3 2.0855216834856915e+01 2.6652862390457392e+00 2.2433405971805973e+00 0 0 1
1322 4 3.0205992059004366e+01 3.0870130678198411e+00 1.6549169280824187e+00 0 1 0
6959 3 3.6393333196553286e+01 2.9043567313386212e+00 1.6592387193008227e+00 0 0 1
6434 5 3.7198674644443329e+01 3.3356778260746487e+00 1.2614947585577363e+00 0 1 1
9128 4 9.6603279598072067e-01 4.3829298323022430e+00 9.8386808072468590e-01 0 0 0
10403 3 1.0316044354589154e+01 4.9329548988992169e+00 4.7835316144198975e-01 0 1 0
6313 4 1.0353289482553595e+01 5.7073531920227643e+00 1.4983581109741744e+00 0 1 1
370 4 1.6557473688547997e+01 4.7256340448843996e+00 1.3089900615165688e+00 0 0 1
9272 5 1.7913118282692672e+01 4.9462397074339801e+00 1.6869822982729905e+00 0 1 0
6913 3 3.9506069986123684e+01 5.7740760923329253e+00 1.4087952517089266e+00 0 1 1
5510 5 4.4089101402311833e+01 4.7717108206420029e+00 1.7214841064972870e+00 -1 0 1
132 5 9.3437244655387719e+00 6.0376860292848260e+00 1.5469678065993322e+00 0 0 1
9680 4 3.6920295884226974e+01 6.5947274432784013e+00 1.8817940891250327e+00 0 0 1
7234 4 9.2088138010342497e+00 7.0838831133968716e+00 1.7780375320759276e+00 0 0 1
510 3 1.9513268980781181e+01 7.7026250447668376e+00 2.2790237916050051e+00 0 0 1
19 4 2.3786972283241774e+01 7.2518536914915277e+00 1.9444905347136836e+00 0 0 0
9568 2 3.1407032264013704e+01 6.8977045763841325e+00 1.3078233545995124e+00 0 0 0
3681 5 3.2364097094845143e+01 6.8516241873033064e+00 1.4849882203079900e+00 0 0 1
9872 5 3.3452068710697596e+01 6.8461648560692394e+00 1.7901424488478230e+00 0 0 1
5217 5 2.4361238606955130e+01 8.0300815301766271e+00 1.6182740167953797e+00 0 0 0
9317 4 3.0119260043425502e+01 7.7689838047346553e+00 2.0274681664402654e+00 0 0 0
6042 4 1.6675450201920427e+01 9.2104897927160572e+00 1.5696047409572333e+00 0 0 0
4371 2 1.8884346657675785e+01 8.6344959183065608e+00 1.2310278596180313e+00 0 0 0
983 6 2.8706604510379908e+01 9.3437252473035546e+00 1.2585030748386041e+00 0 0 0
10165 5 3.2021356603172052e+01 9.1787679444390147e+00 1.6464842066037706e+00 0 0 0
1874 2 3.6122303847015623e+01 8.5618422641544001e+00 1.9125794349065310e+00 0 0 0
10180 4 3.1364285143964361e+00 9.3750379325055935e+00 1.7363070968357326e+00 1 0 1
1647 5 2.0066114812070573e+01 1.0238596508698686e+01 1.0659785490645635e+00 0 0 0
6307 6 3.6006555192812641e+01 9.8808320485152539e+00 1.4664157048343163e+00 0 0 1
5728 4 4.0821438092308078e+01 9.3071117488154922e+00 1.1670564800641026e+00 0 0 0
234 4 7.7335423066150311e+00 1.0555744177200175e+01 1.9963210561274303e+00 0 0 0
397 6 1.0689897124044311e+01 1.1277988962438631e+01 1.1864931915790309e+00 0 0 0
4137 5 2.3148609332612487e+01 1.0622564985458588e+01 1.9243413825384312e+00 0 0 1
8003 4 2.7990342424201469e+01 1.1078022722938224e+01 1.9573785611027543e+00 0 0 0
6105 4 2.9422862945578114e+01 1.0727672396998885e+01 1.1373373315506303e+00 0 0 0
1524 4 3.3100406972813687e+01 1.0585352706325228e+01 8.5720872206925103e-01 0 0 0
4705 5 3.6412149941613769e+01 1.0924183152841275e+01 1.4785505770558176e+00 0 0 0
5683 3 1.6823183375183401e-01 1.1764376149261444e+01 1.6178002299291616e+00 0 0 0
9708 4 2.8987739562853445e+00 1.1131903052202372e+01 1.0629915978270865e+00 1 0 0
5230 3 1.3648875724940941e+01 1.0931639302080614e+01 6.7592706048708739e-01 0 0 0
10017 6 2.7676823206662313e+01 1.1789095580244044e+01 1.0682828093202690e+00 0 0 0
5278 5 3.0853135398126689e+01 1.2341259710288055e+01 6.4323304358340883e-01 0 0 0
9355 3 3.4557328706585871e+01 1.2038236183171032e+01 1.4649116128273605e+00 0 0 0
9456 4 4.1414410369346655e+01 1.1888827366949272e+01 1.3227080186750548e+00 -1 0 1
3882 2 4.4573310956940418e+01 1.1046696395074616e+01 1.2464179652369645e+00 0 0 0
9959 3 1.3873320774630281e+01 1.2701032620705504e+01 1.7294089185267598e+00 0 0 0
9520 6 1.7965751401418586e+01 1.2898857001170635e+01 1.7093621924897879e+00 0 0 0
5439 5 1.9693515782971460e+01 1.2723328404497732e+01 2.0584913833648941e+00 0 0 0
2307 4 2.4381044493400697e+01 1.1981434149026722e+01 6.4540469744640228e-01 0 0 0
2645 2 2.8721428670102526e+01 1.3477753021548988e+01 1.6640803312552821e+00 0 0 0
10232 4 3.9404414969378116e+01 1.2355941447570720e+01 9.1555940850476414e-01 -1 0 1
3931 4 4.0599944755438649e+01 1.2940645473043899e+01 9.1025135347174679e-01 0 0 1
32 4 9.7327987560460301e+00 1.3877147714210547e+01 1.7675278408285329e+00 0 0 0
7383 4 4.5086950457325095e+01 1.3352095252331408e+01 1.8401344293311732e+00 0 0 0
2411 3 3.3374331707808821e+01 1.4085026208051195e+01 1.9655108020330936e+00 0 0 0
2418 4 3.9656408271402562e+01 1.5721115757626366e+01 1.5461975993487873e+00 0 0 0
8989 3 6.0875232009251612e-01 1.5646972536155817e+01 2.0860141436153672e+00 0 0 1
6501 5 1.3383042204117807e+01 1.6393252697662728e+01 1.4725186419668881e+00 0 0 0
5441 4 1.4121019776137837e+01 1.7263762770517811e+01 1.5189501764228477e+00 0 0 1
4656 5 1.5256335818713053e+01 1.6701569878243657e+01 2.2283426164697726e+00 0 0 0
3122 4 3.1459145006809788e+01 1.5827613804611449e+01 1.3412912095477407e+00 0 0 0
2802 3 2.4030873717719512e+01 1.7848231949769996e+01 1.6446342889576437e+00 0 0 1
10111 7 4.0148241074223698e+01 1.6636006298519657e+01 1.4727950424319367e+00 0 0 0
9138 4 2.9083208663127351e+00 1.8623627072172781e+01 9.7112617875731910e-01 0 0 1
1518 6 2.4208748933885506e+01 1.8947494113293942e+01 1.4640320528597670e+00 0 0 0
9923 3 3.1397368873311134e+01 1.8031147200870947e+01 1.2216353336800596e+00 0 0 1
9524 3 4.1292450729775688e+01 1.8304972149287156e+01 2.3511123705744876e+00 -1 0 1
323 5 1.4007426008209727e+01 1.9399411259108465e+01 1.5014038396853382e+00 0 0 0
2815 3 2.2197376749794124e+01 1.9390006975682891e+01 1.1073379723836960e+00 0 0 1
322 4 1.4053943023430364e+01 2.0384919701155113e+01 1.7326610595668279e+00 0 0 1
1572 5 1.9267448397252551e+01 2.0250176912689234e+01 9.1288104653183710e-01 0 0 1
4345 3 2.4264075091021247e+01 2.0668103814418636e+01 8.6534289755345239e-01 0 0 0
8546 4 2.7057281068714634e+01 1.9984802513569928e+01 4.5024947790669873e-01 0 0 0
8879 4 3.2363732132077779e+01 2.0397027166715663e+01 2.0097611931541479e+00 0 0 0
199 4 5.9021649942095751e+00 2.0943135345070370e+01 1.5274991813241623e+00 1 0 0
9217 5 3.0854411442504432e+01 2.1003047798133434e+01 1.9178178816987057e+00 0 0 0
1818 3 3.9480591721514500e+01 2.0985689343156910e+01 1.4475776555053050e+00 0 0 1
6070 3 1.0061547968627860e+01 2.2285528827882580e+01 1.4217585903980994e+00 0 0 0
10142 3 1.5094317690128817e+01 2.2659123647756257e+01 1.2406442631606112e+00 0 0 0
5522 3 2.3428311712153203e+01 2.2859344701862508e+01 1.9356569321080068e+00 0 0 1
9223 2 2.8268802306850425e+01 2.2579247518005083e+01 8.6453852507007478e-01 0 0 1
5457 4 3.7438289238965503e+01 2.1588470824387528e+01 1.6666592933165154e+00 0 0 1
1700 4 8.6342528200961315e+00 2.2879596452447807e+01 1.0316642477905102e+00 0 0 0
4773 5 2.0852689884665658e+01 2.2984099435020788e+01 1.1728262614743423e+00 0 0 1
3343 4 2.4830206509427640e+01 2.3584594894549312e+01 1.4009470912644115e+00 0 0 1
2314 4 3.1621248159067516e+01 2.2716759292106406e+01 8.4911614323703466e-01 0 0 1
3799 5 4.6393983159498909e+01 2.3576542254960241e+01 1.6400714268175143e+00 0 0 0
1296 7 1.2140053685078994e+01 2.4074285406938657e+01 1.1493007793263990e+00 0 0 0
3254 3 1.4171087092861638e+01 2.3775144672856122e+01 1.2322912333715215e+00 0 0 0
8609 5 3.7719675267504527e+01 2.3933702030670808e+01 1.6358364955483018e+00 0 0 1
8861 3 4.8623576219190756e+00 2.4952347089596675e+01 2.2677095201354129e+00 0 0 0
5650 4 9.4622865257560314e+00 2.4470190769499300e+01 1.4149836176622215e+00 0 0 1
8768 4 1.4025453909014239e+01 2.5283528741919366e+01 1.8860588633110082e+00 0 0 1
1262 5 3.3226702712234477e+01 2.4668995435037807e+01 1.0472210318613373e+00 0 0 0
3722 3 3.4576158862308951e+01 2.4755086961205230e+01 1.7159024473452034e+00 0 0 0
201 3 2.5452166503375395e+01 2.5629635401942650e+01 1.1618652910464480e+00 0 0 0
6764 3 2.8448281729296259e+01 2.6444564944916035e+01 1.9928134002219779e+00 0 0 0
8817 4 6.8247614121792644e-02 2.6798061926347838e+01 2.2198855037183738e+00 0 0 1
9242 4 8.3345127080334702e+00 2.7570765805479034e+01 1.7031441641154781e+00 0 0 0
736 3 1.2756192752061333e+01 2.6979236385142265e+01 6.3020409404747979e-01 0 0 1
2584 3 1.8796017141481979e+01 2.7724629757373211e+01 9.7627039356892642e-01 0 0 1
1184 5 2.5232493204928865e+01 2.6833742517226945e+01 1.3381132809874929e+00 0 0 0
1214 5 2.6181146139145287e+01 2.7246635301079330e+01 1.2015329091377946e+00 0 0 0
809 5 2.8610468805329741e+00 2.7253864833438897e+01 9.4149464213180867e-01 1 0 0
8359 3 5.5472254624745929e+00 2.7790702685084831e+01 1.6210509722051332e+00 1 0 0
623 4 1.0222256435240554e+01 2.7692844810712547e+01 9.6480899206593373e-01 0 0 0
9264 3 1.0727307989210987e+01 2.8151106152058894e+01 1.7386274142006584e+00 0 0 0
5826 5 3.0637362399743360e+01 2.7496057337500066e+01 1.4424717829645655e+00 0 0 1
8291 5 3.7065063467685391e+01 2.7395982868461591e+01 1.8366445432043546e+00 -1 0 0
4625 3 4.3950342540470857e+01 2.7221505523547251e+01 1.2147144717026606e+00 0 0 0
8012 5 2.1518393253562387e+00 2.9413563000624180e+01 1.4654710237520532e+00 0 0 0
10442 6 3.3433334582123768e+00 2.8374523833387325e+01 1.3472236509604036e+00 0 0 1
318 6 1.5685439884384795e+01 2.8659743108506657e+01 1.1153899735220183e+00 0 0 1
5188 5 1.9624657053833406e+01 2.8795792097801158e+01 1.2051390235215409e+00 0 0 1
7050 4 4.1194835044077394e+01 2.9382930119204140e+01 1.6780346445689176e+00 -1 0 1
9515 5 4.1904759060191317e+01 2.9333178208079254e+01 8.0690746116273049e-01 0 0 0
4529 2 2.0539825498239619e+00 3.0803868309805818e+01 1.4385311411261277e+00 1 0 0
3521 3 4.3778519684116670e+00 3.0790970863961114e+01 1.0358017873746033e+00 0 0 0
9559 5 1.3742799961198921e+01 3.0641167429254047e+01 1.6354340716525886e+00 0 0 1
4448 5 1.5762344735607103e+01 3.0987624726881538e+01 1.6873061768517423e+00 0 0 1
6236 5 2.5277663996111041e+01 3.0259817109472241e+01 1.8325780766541462e+00 0 0 0
77 5 2.7148097575853200e+01 3.0009790142795868e+01 1.1724177972252856e+00 0 0 0
6697 3 2.9745708275667557e+01 2.9675718021363185e+01 9.5725261400578032e-01 0 0 1
7803 4 3.8990218495541370e+01 3.0736426247967056e+01 1.5631702410402506e+00 0 0 0
5920 4 4.0747595823431666e+01 3.0577687117707040e+01 8.0913821645515083e-01 0 0 1
8744 5 3.6559872004675427e+01 3.1647987774708835e+01 1.2537568062916289e+00 0 0 0
3873 2 4.4107806530806499e+01 3.1906756173423783e+01 1.1497518130027016e+00 0 0 0
4415 6 9.5719946994593066e+00 3.2618031191259327e+01 1.1860194058907210e+00 0 0 1
2807 6 3.2287229990878977e+01 3.2268778837994702e+01 1.9526308105986889e+00 0 0 0
523 5 4.2292546478183198e+01 3.2257413088578794e+01 1.5552182828047649e+00 0 0 1
8053 3 4.3151044862446930e+01 3.2682606810614672e+01 1.2643793652890758e+00 0 0 0
3024 4 1.6596062048455491e+00 3.3346908137153811e+01 7.1092625812229560e-01 1 0 0
1097 3 2.7476429268877553e+01 3.4319081578522791e+01 1.2014396666912250e+00 0 0 0
6881 4 4.4034843515904150e+01 3.3339417523790260e+01 1.2331541378100281e+00 0 0 0
2942 5 4.5045363664713442e+01 3.3167164130560849e+01 1.0319460468041881e+00 0 0 1
5913 3 7.1900969823852909e+00 3.4621225300658999e+01 1.1913051826999557e+00 0 0 1
5551 3 1.2075034073483558e+01 3.4439499726533732e+01 1.9611024725322495e+00 0 0 1
3838 5 5.3140786951689167e-01 3.4740830191288907e+01 1.2914934163487850e+00 0 0 0
6356 5 1.6009510690791424e+00 3.4792414762759748e+01 1.3853298993629914e+00 0 0 1
912 3 2.9322718433906836e+00 3.4751196959045672e+01 6.7488302557646018e-01 1 0 0
5503 5 1.3191149635076115e+01 3.5703540409996329e+01 1.2219566576345875e+00 0 0 1
7910 4 2.3544600313544571e+01 3.4819173196377740e+01 1.5891377431105098e+00 0 0 0
6281 5 2.4541032074996266e+01 3.5276412731114789e+01 1.5176747942710163e+00 0 0 1
5537 4 4.1850641188237830e+01 3.5835773060361070e+01 1.0750800453579927e+00 0 0 1
1835 5 4.5444750202058273e+01 3.6140919146960201e+01 1.4169856058858725e+00 0 0 1
8948 5 2.9932587343711941e+01 3.6238013132602831e+01 1.1977200312910197e+00 0 0 0