LAMMPS Description

10500 atoms

7 atom types

0 47.13 xlo xhi
0 47.13 ylo yhi
0 47.13 zlo zhi

Masses

1 0.356818
2 0.40772
3 0.463247
4 0.523599
5 0.588977
6 0.659584
7 0.735619

PairIJ Coeffs # morse

1 1 1 33 0.88 1.232
1 2 1 33 0.9 1.26
1 3 1 33 0.92 1.288
1 4 1 33 0.94 1.316
1 5 1 33 0.96 1.344
1 6 1 33 0.98 1.372
1 7 1 33 1 1.4
2 2 1 33 0.92 1.288
2 3 1 33 0.94 1.316
2 4 1 33 0.96 1.344
2 5 1 33 0.98 1.372
2 6 1 33 1 1.4
2 7 1 33 1.02 1.428
3 3 1 33 0.96 1.344
3 4 1 33 0.98 1.372
3 5 1 33 1 1.4
3 6 1 33 1.02 1.428
3 7 1 33 1.04 1.456
4 4 1 33 1 1.4
4 5 1 33 1.02 1.428
4 6 1 33 1.04 1.456
4 7 1 33 1.06 1.484
5 5 1 33 1.04 1.456
5 6 1 33 1.06 1.484
5 7 1 33 1.08 1.512
6 6 1 33 1.08 1.512
6 7 1 33 1.1 1.54
7 7 1 33 1.12 1.568

Atoms

1 4 21.2098 15.6609 17.9151
2 4 7.47104 46.5389 46.8169
3 3 24.1284 46.3418 21.062
4 3 46.6709 17.7669 6.25128
5 3 33.6475 28.5393 39.5884
6 5 37.5033 16.8409 36.4285
7 3 26.9366 32.968 9.62161
8 5 33.2496 37.0477 19.8546
9 2 25.4525 11.6747 7.66633
10 4 20.4201 22.9406 14.0088
11 3 2.76714 42.8772 23.3527
12 3 4.78955 6.45474 5.1264
13 5 9.68952 28.987 25.0276
14 2 46.6658 40.8277 37.7265
15 5 19.6223 31.0754 0.264625
16 2 21.4101 30.1856 8.04562
17 1 28.6239 44.2486 8.33192
18 6 0.769009 23.6733 30.4479
19 4 15.4253 6.53823 3.22574
20 3 35.2707 3.1151 11.3756
21 2 45.7819 1.14695 17.7001
22 5 16.9914 41.0767 35.154
23 5 10.1581 36.413 25.7549
24 5 2.00797 20.9221 32.3136
25 4 32.2636 9.15397 11.0515
26 3 37.3781 32.2344 5.17188
27 4 2.66319 45.8779 43.6128
28 5 35.8544 15.7373 8.61635
29 5 18.3666 3.59768 4.72512
30 4 0.407443 31.7219 6.8308
31 5 26.6515 18.5106 4.50349
32 4 8.16195 8.04653 9.45715
33 2 11.3497 38.6828 37.0818
34 5 14.6913 29.8267 33.3151
35 3 25.0696 5.2898 46.4276
36 3 16.5838 2.94461 42.321
37 4 35.3135 6.98562 2.89879
38 4 28.3725 6.68175 8.33815
39 5 30.3863 24.4685 29.8146
40 4 28.0077 35.3594 41.9733
41 2 38.5195 8.05519 10.2197
42 6 30.5873 4.64788 45.2742
43 4 37.9319 37.9318 46.6908
44 4 9.10831 43.5967 9.93433
45 3 23.2134 31.0143 30.7636
46 5 5.61666 40.598 36.4428
47 3 45.9639 29.5453 31.1158
48 4 11.3227 23.7129 17.9618
49 3 29.67 40.9044 27.8615
50 4 1.46904 10.9405 11.111
51 5 26.95 27.4923 37.7893
52 4 13.3571 43.784 25.9115
53 5 22.3412 45.8478 11.0519
54 6 21.6908 30.9365 35.9226
55 4 24.1319 41.3854 46.5671
56 5 29.8031 21.5947 11.3082
57 3 40.0319 24.6598 44.5943
58 4 24.0238 39.6013 4.99345
59 4 31.4629 41.1106 46.0162
60 3 37.8136 3.4213 19.9288
61 4 25.8664 1.48277 20.3826
62 4 47.0399 10.4099 26.108
63 4 10.5209 27.6154 28.5916
64 4 6.94798 39.9874 10.5637
65 5 35.6383 18.4852 23.5441
66 5 12.6739 34.5835 26.5208
67 5 27.1062 25.2059 42.1881
68 1 19.0451 44.3351 41.4086
69 3 31.2475 29.3477 3.0426
70 5 46.117 30.5485 32.6035
71 3 33.8847 20.7994 14.0108
72 5 25.955 31.803 31.5962
73 5 40.0065 15.6583 7.36121
74 4 41.3437 30.2698 35.0881
75 3 8.39029 40.5211 21.3596
76 3 23.2897 45.8285 8.24276
77 5 38.1791 38.03 7.49453
78 3 10.9123 0.180758 23.8394
79 4 33.0768 18.7899 46.0425
80 6 2.67147 12.3201 29.6883
81 3 42.9624 42.1935 37.0118
82 6 36.3163 21.1835 44.4727
83 5 43.2436 46.6087 25.4389
84 5 33.2145 41.9754 37.4568
85 2 27.6974 11.3215 15.2911
86 4 21.905 36.7293 32.2311
87 5 12.7602 32.5393 8.09308
88 4 45.5136 34.3984 33.1923
89 4 7.60744 19.5899 20.8132
90 5 19.1246 28.1464 3.55532
91 4 20.2437 35.2358 45.0177
92 4 8.93412 45.7201 1.94022
93 4 21.2923 44.8151 41.5614
94 5 26.5742 4.16172 24.484
95 4 26.0068 43.1454 30.7129
96 4 29.6842 33.7984 24.0063
97 5 47.0982 43.6696 27.2779
98 4 29.622 22.376 10.6207
99 4 17.4298 4.86924 38.9398
100 4 17.4931 42.6812 37.1758
101 4 7.67152 7.28659 18.3222
102 3 46.8779 39.3879 45.1002
103 2 16.6368 15.6184 30.5965
104 4 0.330789 12.551 6.13088
105 4 25.2036 38.6203 17.8047
106 5 2.52096 47.0258 24.8171
107 4 24.4874 27.048 39.1879
108 3 1.08187 36.8901 1.74931
109 4 13.0752 13.3446 44.0668
110 5 1.46164 34.5458 27.1692
111 4 6.67362 32.6256 15.4403
112 6 16.7925 38.7537 27.3114
113 3 39.4244 35.2597 13.9532
114 5 4.16068 17.6074 44.3302
115 4 10.636 20.4052 33.9094
116 5 11.8729 11.8925 21.4692
117 4 3.5303 14.138 15.0791
118 5 27.0575 2.03099 27.615
119 4 15.7716 30.0265 35.2802
120 6 2.46165 31.5797 44.1015
121 5 37.5074 26.9244 22.7178
122 5 10.0176 5.18262 23.2696
123 4 12.2105 38.0677 10.3603
124 5 20.6932 2.59447 4.37054
125 5 44.5872 2.14883 2.40324
126 1 24.1001 43.0006 26.1807
127 4 26.7209 42.2304 25.8203
128 5 36.922 44.5714 35.485
129 6 4.77032 18.4617 10.8112
130 4 20.5021 37.1351 24.2376
131 4 1.64504 19.6235 18.6002
132 5 8.81411 13.08 35.9167
133 3 45.2259 22.1546 6.38795
134 4 5.61571 7.96527 17.5288
135 4 34.8195 2.75497 14.8536
136 2 33.8159 40.6895 16.7227
137 4 8.93401 13.2269 24.6955
138 4 32.3549 9.23538 5.88797
139 4 23.7299 23.0864 13.4945
140 4 4.20315 7.37286 25.632
141 6 45.2808 43.1024 44.7459
142 3 12.2685 1.9691 5.93169
143 3 40.2737 31.8792 4.18049
144 3 25.6697 47.0232 35.1141
145 3 22.5354 0.211356 0.231047
146 3 3.64193 5.78011 11.4167
147 3 30.4327 41.9101 3.77274
148 4 36.6604 18.0875 46.8725
149 3 46.4481 40.8377 32.4605
150 3 44.3378 30.0014 36.6844
151 2 38.1664 35.5549 46.5571
152 4 12.5634 20.5789 13.4701
153 4 15.1951 41.4208 20.2669
154 4 38.3524 3.94733 7.05089
155 4 21.0376 16.9281 24.9493
156 3 11.7311 11.2952 43.6659
157 3 46.1132 40.2347 20.6538
158 4 22.5309 7.83585 32.0641
159 5 23.1067 40.7034 1.68268
160 4 42.5565 5.71726 15.944
161 4 34.2032 40.3587 37.0493
162 5 23.2967 32.4007 18.8834
163 3 29.4022 27.0314 10.1783
164 4 34.5074 8.8415 23.8203
165 4 24.4082 9.52739 16.3135
166 4 41.5823 26.7471 21.5119
167 4 1.26321 36.1777 44.4719
168 5 11.2756 9.07741 29.0908
169 3 8.05855 17.3462 21.9279
170 6 21.3396 3.64719 5.56786
171 4 29.3106 6.12082 35.7254
172 6 28.0687 21.3949 8.51077
173 4 9.8415 21.6116 2.51047
174 6 45.0236 25.0791 2.25508
175 4 25.5637 29.0378 0.279037
176 4 31.29 20.8188 41.9016
177 3 36.7532 24.5667 8.26308
178 5 31.0837 14.7352 43.2059
179 4 39.0828 31.1854 45.3495
180 3 42.8768 44.8837 30.931
181 3 35.1303 18.828 9.27685
182 5 16.8949 29.8532 40.3727
183 5 8.12526 42.2695 38.1841
184 3 39.5647 37.7463 40.1021
185 5 13.2547 0.478138 37.2745
186 5 36.7301 36.8743 9.84796
187 5 29.7825 46.3507 37.7347
188 6 2.22699 15.3398 34.8122
189 4 36.209 21.5152 5.26332
190 5 7.14896 2.89689 18.0287
191 5 4.92731 18.457 33.3279
192 3 38.3931 21.0528 7.56181
193 3 45.716 32.4127 39.9804
194 4 14.8585 16.5715 34.3251
195 4 27.1741 20.3227 45.5122
196 4 10.5615 19.5082 19.3431
197 4 37.0104 14.2763 24.4428
198 4 30.6359 5.26828 0.640636
199 4 42.2352 14.6648 4.6036
200 3 25.3714 19.6741 23.8709
201 3 31.3232 26.4201 7.42744
202 6 44.5085 0.547743 32.4633
203 4 20.9234 34.3201 35.5796
204 4 34.8547 10.2273 39.4138
205 5 6.05437 41.3041 42.5968
206 3 37.7814 10.9791 6.42394
207 4 8.55407 45.6223 10.4751
208 5 31.5295 22.5867 33.392
209 4 35.3442 9.27739 45.3809
210 5 14.0344 33.7071 1.87852
211 3 17.8454 31.8153 1.2436
212 4 14.4887 32.4286 41.4724
213 4 4.22306 34.9954 5.76019
214 3 2.64985 14.309 45.7482
215 3 9.00967 38.3839 28.5732
216 3 46.2371 41.7168 27.2174
217 3 10.0264 45.4874 4.32584
218 3 35.9984 8.4215 43.747
219 6 19.5577 22.0043 18.4005
220 4 7.08786 35.1879 37.9353
221 4 33.6978 25.656 21.8599
222 5 6.52276 18.163 43.5638
223 6 41.9433 30.6898 2.62747
224 2 22.0006 30.6093 29.9128
225 4 7.98365 19.6875 33.5798
226 3 15.3806 36.4527 44.3133
227 3 37.2564 42.0037 12.8113
228 4 35.6265 29.2607 42.0944
229 4 19.2359 21.7586 14.6183
230 6 40.5204 23.577 27.4995
231 2 15.8779 20.9514 1.61259
232 3 28.5507 43.6133 17.2192
233 4 45.2919 46.0597 31.6529
234 4 0.854056 6.7097 3.83207
235 4 45.0157 4.49535 44.3344
236 4 1.3215 42.4334 39.4254
237 3 17.5736 42.6561 33.625
238 5 19.548 44.1538 24.6434
239 4 28.697 40.2521 34.891
240 4 41.7124 38.163 23.3828
241 4 37.0375 35.3263 31.3283
242 5 44.8803 38.9745 4.04711
243 4 46.1524 14.5016 28.5028
244 5 44.6559 40.3858 39.586
245 5 30.6435 43.6715 25.7422
246 6 27.1246 36.6354 2.92219
247 4 19.1644 16.1165 39.6987
248 5 26.1749 1.29703 19.2854
249 4 31.1793 24.5837 4.72602
250 3 36.8282 8.90854 18.3949
251 3 21.4768 25.6879 0.467807
252 4 34.3603 26.9949 27.5397
253 4 40.5771 18.1715 7.49743
254 5 2.17455 4.98886 28.1978
255 3 39.0356 39.3707 21.013
256 4 10.5742 23.8207 0.489954
257 3 39.8798 4.67362 20.0872
258 4 44.404 4.63924 20.4496
259 4 29.4787 30.2097 24.8614
260 4 26.8071 30.6534 20.6948
261 3 28.4375 10.8417 44.3381
262 3 15.4862 20.9538 36.4676
263 4 3.52516 33.2345 38.3799
264 3 7.76213 10.4887 37.4847
265 5 26.5904 41.9214 27.0908
266 4 36.7879 12.7138 43.8361
267 6 12.4748 42.1281 43.0367
268 4 39.503 38.55 42.8263
269 2 30.5633 34.8695 23.6623
270 4 28.4981 8.70196 26.8728
271 4 24.8827 24.4443 38.5392
272 4 46.2491 25.6916 46.0311
273 4 37.8036 30.3567 22.2137
274 2 22.0421 13.2836 8.90378
275 5 32.8128 8.92592 5.35807
276 3 29.2465 9.38564 11.5637
277 5 20.9151 24.6911 18.2712
278 5 36.1567 34.5636 21.9206
279 2 15.8097 26.2905 27.5062
280 5 22.8253 4.76203 33.2556
281 4 40.2684 23.8458 18.4094
282 5 11.6316 7.79711 16.2575
283 3 46.0366 47.1181 39.3392
284 3 28.5503 5.1288 41.3291
285 3 35.5094 31.804 20.4318
286 4 45.007 5.8785 37.7356
287 5 26.0336 7.17936 24.6353
288 3 18.4025 7.78229 35.3998
289 4 29.2818 20.1583 11.3444
290 4 12.3053 41.5919 41.2059
291 4 9.35232 26.8831 18.5449
292 2 36.6573 21.7409 14.8808
293 4 34.6188 4.95358 31.3599
294 3 36.3688 37.1636 21.9071
295 5 36.8466 13.6729 4.25804
296 4 33.2317 2.95171 26.7414
297 4 38.8855 9.29709 6.44383
298 5 26.5044 26.9006 41.401
299 4 15.4961 31.6336 32.917
300 4 38.9674 18.3634 21.7182
301 4 26.3456 40.7151 22.5753
302 3 17.3477 37.5054 34.6982
303 5 32.1819 17.4741 28.5736
304 6 25.9511 22.9095 17.5869
305 5 45.0895 34.9203 2.98737
306 3 25.3106 46.2428 12.9106
307 4 25.5429 46.298 13.2187
308 4 23.4591 14.6564 34.3923
309 4 42.0364 20.4881 8.20571
310 5 9.24083 46.0919 23.2557
311 4 5.19777 31.8736 18.4453
312 3 7.96028 19.1237 37.0298
313 5 16.6563 43.3599 22.9126
314 3 46.2945 30.6386 36.3817
315 4 14.1092 29.1368 10.9275
316 4 11.4199 3.81815 6.4824
317 3 41.9799 2.14676 12.3523
318 6 19.3195 32.4481 42.6182
319 6 18.654 27.4988 0.0751447
320 2 0.82482 14.7434 0.408156
321 5 25.5839 37.6184 5.13157
322 4 8.60459 20.8021 40.2923
323 5 18.3807 21.1339 6.16668
324 4 7.78848 25.8428 18.9062
325 5 13.6812 5.84138 36.4532
326 4 38.8444 14.7246 6.51471
327 6 0.0137214 13.4821 36.6211
328 4 38.0902 9.83511 3.24536
329 4 34.9697 43.0036 6.14155
330 3 40.6531 28.8389 8.62852
331 3 35.8615 1.79657 8.44399
332 2 1.10421 29.3522 45.3824
333 4 18.5579 43.3228 43.0787
334 4 29.3233 40.0039 4.39562
335 6 9.5627 42.7234 29.9046
336 5 23.2822 44.9816 32.1002
337 4 2.40169 19.0249 16.5274
338 5 26.0954 35.0458 34.9547
339 5 23.9194 0.115478 14.614
340 3 4.06602 5.14608 29.9568
341 4 21.5538 38.3219 32.185
342 5 5.98231 11.2265 33.549
343 4 0.872156 25.9777 39.4807
344 4 29.093 33.9012 11.2605
345 5 6.18388 15.9525 45.8758
346 3 20.7559 46.7552 21.283
347 6 23.3455 10.5157 36.18
348 4 17.5327 25.8875 46.9591
349 4 34.4278 43.6568 18.0353
350 4 26.8598 43.2736 39.7557
351 4 9.88453 35.496 12.7124
352 5 31.9831 24.9163 7.54678
353 2 39.121 37.6377 30.4494
354 4 30.0779 16.2298 34.3137
355 2 41.8168 4.66346 45.7804
356 5 11.0166 9.49647 45.1349
357 5 3.47044 19.7769 22.8655
358 7 14.7049 1.31102 22.9644
359 1 3.75255 4.19343 28.0396
360 5 13.8885 15.0233 30.6117
361 4 4.37971 38.9846 43.9664
362 3 22.6637 11.2654 23.593
363 5 16.6801 33.9364 16.4701
364 5 42.4535 35.0231 32.6249
365 3 44.1514 0.0851032 34.303
366 5 8.04466 27.122 12.8676
367 4 33.2846 13.9728 36.4474
368 4 13.577 41.4775 14.1139
369 6 25.9363 33.8055 32.4047
370 4 19.9148 4.90196 46.8718
371 5 23.2254 24.9711 4.54872
372 3 37.3384 42.2314 13.038
373 4 10.5134 41.5066 35.7273
374 5 45.2769 15.8556 46.4398
375 2 19.8165 32.5198 39.9044
376 5 37.8174 39.8453 2.36647
377 6 30.8255 22.3384 45.1954
378 5 14.7496 22.1949 38.2825
379 4 12.7852 16.8629 41.3085
380 4 3.74886 1.74421 1.58675
381 4 4.60685 38.4807 16.4776
382 4 22.9681 35.2073 18.2681
383 5 7.66684 39.971 8.5128
384 5 0.436356 30.3842 44.3967
385 3 37.9375 5.07945 45.6707
386 5 11.6725 1.77202 14.1984
387 6 36.1252 14.853 45.9863
388 5 20.7601 39.435 41.8228
389 5 1.69922 43.7224 7.854
390 3 34.4284 45.4648 9.13907
391 3 14.2375 25.1638 37.6623
392 5 30.2684 35.1668 2.54204
393 4 46.1266 32.5257 22.576
394 3 13.1743 38.4615 12.5924
395 4 42.8295 31.6074 35.5526
396 1 2.81141 37.8817 45.7518
397 6 11.8442 7.52916 8.77223
398 5 45.0987 42.9566 0.665691
399 2 43.2159 0.984674 17.6658
400 4 31.9252 9.52241 24.1725
401 5 6.77742 23.2763 33.0225
402 4 26.0051 34.3405 29.0767
403 3 45.6818 14.0314 22.6448
404 4 4.76955 21.636 2.12015
405 4 4.99219 46.5291 41.1655
406 5 2.15444 43.0455 17.0187
407 3 38.2115 42.0264 36.2834
408 4 19.343 45.6257 29.7577
409 1 21.5806 31.5853 24.6427
410 5 14.9635 45.9413 29.9758
411 4 43.4949 41.5676 31.8873
412 4 3.19202 45.7578 15.2205
413 3 0.783953 2.86815 45.2305
414 4 30.5503 3.41507 31.1899
415 3 43.8607 43.1425 11.1909
416 6 33.6959 20.5173 16.6423
417 5 19.5793 9.85622 30.487
418 6 15.7538 39.2052 15.6639
419 3 10.4511 41.87 32.0339
420 4 0.497323 7.97493 8.14493
421 5 3.19644 37.0171 31.6983
422 3 38.3696 3.72756 29.5593
423 3 9.44001 1.98036 12.5307
424 7 40.9878 29.1442 2.10352
425 4 17.8975 8.22961 14.9636
426 4 41.336 24.2715 20.3134
427 2 20.9966 38.6859 36.3506
428 3 4.11163 7.4859 22.7938
429 5 4.15924 19.9367 23.3547
430 4 16.5654 14.2579 15.0814
431 5 3.00962 1.72884 44.8482
432 4 44.3007 42.2716 6.0158
433 4 1.60345 15.9519 7.8208
434 4 41.8763 19.7784 5.53921
435 2 30.6207 36.7663 22.3174
436 4 7.99235 4.24987 35.8265
437 6 12.0205 14.0456 11.2836
438 4 42.1514 32.312 11.0476
439 3 46.2107 36.9789 36.0553
440 3 47.004 38.343 8.28593
441 7 45.9544 11.4595 1.00234
442 3 8.81192 16.5693 42.7585
443 3 38.4827 31.5536 40.2317
444 5 3.18158 35.2718 19.3035
445 5 4.86346 35.7733 35.829
446 4 11.4784 40.4859 40.8522
447 4 43.491 11.5731 5.09328
448 5 4.43198 2.83487 11.4626
449 5 7.01743 33.1175 17.5094
450 5 39.9406 21.0981 27.907
451 4 5.42776 38.5584 26.3287
452 4 27.8629 36.4662 39.6689
453 3 1.74458 34.6191 7.5244
454 5 4.27378 38.9421 34.0543
455 5 16.094 35.0124 28.2418
456 3 11.6073 22.8746 43.989
457 2 11.2401 45.5891 36.0422
458 5 24.1322 35.8103 30.8468
459 4 2.83394 0.595033 31.4677
460 5 19.5307 29.9947 15.8315
461 3 13.968 12.9106 3.78327
462 2 22.1424 45.8496 13.0366
463 4 45.173 16.1981 20.0641
464 5 11.5144 37.6588 22.6193
465 4 4.92229 4.23701 43.5319
466 2 30.2017 10.9891 14.3029
467 4 45.3917 4.94069 5.78968
468 3 43.366 4.44739 16.8139
469 4 13.9605 19.5072 11.7211
470 2 33.6902 0.575118 28.6959
471 6 30.8775 28.1778 27.3326
472 4 42.1622 41.5261 20.8203
473 3 35.2667 4.81873 37.6766
474 4 29.9036 36.6948 7.92016
475 4 43.6544 35.5519 2.85797
476 3 24.013 20.8536 8.49147
477 3 8.48233 27.6393 18.0897
478 3 23.7163 46.5124 25.7429
479 3 41.5723 27.6242 45.1418
480 5 40.7232 23.6293 18.9643
481 5 33.5502 27.9712 27.0394
482 4 10.2005 40.5886 1.06975
483 5 6.27654 22.6344 15.7578
484 5 42.979 36.4792 21.2199
485 6 11.6682 17.0195 34.0876
486 4 5.83153 18.4953 22.0563
487 4 8.40918 14.4048 11.928
488 3 2.012 17.4933 43.7306
489 4 1.09808 21.4067 4.05631
490 4 20.2509 21.2901 10.5071
491 4 39.836 10.6317 20.2846
492 3 47.103 1.3778 13.3085
493 6 43.6294 28.2405 43.9052
494 4 9.4171 9.4594 23.9916
495 6 8.59058 19.4059 22.5512
496 6 6.49213 43.7802 27.3315
497 3 22.0259 40.8259 4.93731
498 5 21.2772 23.4738 26.8439
499 3 36.9706 3.87953 19.4083
500 3 45.45 46.0262 15.3312
501 4 21.7451 4.89185 7.80902
502 4 43.8384 21.9589 25.8243
503 3 45.7405 24.0193 38.1321
504 6 4.50806 27.8029 30.1283
505 5 10.0183 9.61406 9.25269
506 3 6.47354 6.35295 21.5383
507 3 45.1931 42.7581 6.09872
508 3 7.89572 44.2547 24.201
509 4 32.1916 46.6449 9.64458
510 3 24.7773 7.3146 46.1865
511 5 39.9814 45.1894 45.8213
512 6 35.2258 4.05954 36.141
513 3 30.9057 34.0111 8.43071
514 3 4.03534 0.605691 30.6488
515 5 17.962 10.0357 27.1333
516 3 43.6319 14.6938 18.595
517 5 41.8404 29.1731 38.5642
518 6 41.825 32.7946 20.2548
519 3 28.409 35.8256 35.9666
520 3 37.7959 36.3703 37.7618
521 4 6.67074 18.1436 0.484314
522 5 30.5785 44.1469 5.55359
523 5 32.4258 30.8485 40.1498
524 4 27.98 25.533 42.033
525 5 4.63056 26.7249 34.9008
526 4 23.8827 33.3783 11.7868
527 3 35.6384 46.8602 38.5253
528 2 39.0533 17.2148 4.49373
529 6 0.986604 26.6031 37.1
530 3 34.1153 33.2666 24.4432
531 4 10.4483 41.2284 14.2395
532 3 15.2581 40.2046 38.1727
533 3 42.5528 12.1188 13.4854
534 3 6.07932 43.6152 5.19877
535 3 44.3561 19.0649 8.28429
536 4 28.8632 13.9253 43.5301
537 3 11.9178 16.7307 33.2457
538 4 17.2357 23.5411 5.35102
539 3 14.8208 42.2476 41.4787
540 2 36.1097 21.2238 40.5061
541 3 10.6684 40.8213 26.0116
542 4 22.6741 1.85106 4.18853
543 3 4.98996 7.03482 1.32362
544 3 2.09531 27.9785 0.643829
545 5 33.6661 37.709 35.0374
546 5 22.8907 26.3559 43.2949
547 5 32.8999 11.5357 10.9839
548 5 18.7563 6.46935 43.3759
549 5 46.0854 6.89203 1.00329
550 4 5.02616 9.8506 16.9331
551 4 8.5436 41.2467 20.8728
552 3 45.9767 23.3466 12.6807
553 3 3.25085 5.3258 47.0094
554 3 1.78114 30.3198 17.7427
555 4 20.3813 29.6192 27.0378
556 3 44.9339 8.258 5.9348
557 4 30.4429 8.21456 24.6718
558 4 35.0841 21.2918 34.3314
559 3 5.23949 16.4354 19.3468
560 3 12.4081 4.59977 31.7735
561 4 33.9187 23.6347 26.6324
562 4 35.2255 1.38646 27.4877
563 3 28.5394 1.71051 44.8579
564 2 25.2204 15.0051 42.1437
565 5 28.2214 12.554 18.2747
566 5 18.4171 10.0044 45.1578
567 3 35.0668 22.9166 28.7393
568 3 8.49397 39.3646 35.7036
569 4 17.4971 14.0622 31.1202
570 4 23.2657 37.3102 29.4273
571 4 25.8795 23.5246 3.41658
572 5 17.2228 28.9128 44.0289
573 3 21.2475 8.83648 40.198
574 5 5.75256 20.8253 31.8353
575 3 35.8328 36.5392 45.5105
576 4 18.2092 24.6261 35.6608
577 3 23.0549 42.1515 29.3983
578 3 20.0422 34.765 11.0386
579 3 10.0728 4.70226 7.77454
580 3 16.8635 12.9243 13.7652
581 3 29.6998 16.9384 41.2073
582 2 2.6991 23.6364 17.2661
583 4 36.9845 18.1423 29.3718
584 4 8.48339 29.3769 26.6391
585 4 19.9505 33.9212 0.537307
586 3 1.32859 32.3287 9.02203
587 4 33.4615 1.95162 26.9903
588 4 6.23056 21.665 43.146
589 6 24.2318 12.8062 35.7587
590 2 35.8476 0.0252567 12.5264
591 3 1.56344 24.8485 44.5849
592 5 45.7919 45.4039 43.1892
593 3 5.59635 20.003 31.4677
594 4 11.3138 37.2003 38.7624
595 5 42.2303 1.63843 4.95542
596 5 4.7177 22.031 38.8316
597 3 41.9402 3.60475 43.2309
598 3 8.73563 0.275233 14.1371
599 4 32.9655 25.7234 18.368
600 3 20.4742 41.603 12.8869
601 3 19.9756 11.103 37.2517
602 4 41.5518 5.4336 13.856
603 5 36.2072 8.33556 16.1015
604 4 25.9776 25.4208 30.9411
605 4 0.627978 34.4583 36.0624
606 3 25.8755 18.1009 41.2006
607 4 2.04391 31.2719 6.10124
608 4 20.4366 34.0916 21.1539
609 3 38.4577 44.0595 40.0522
610 5 15.8078 42.2237 29.7208
611 5 14.0388 37.0149 30.8637
612 2 44.6389 1.01826 26.892
613 4 26.0882 13.8562 29.8318
614 5 16.8492 36.9795 43.9795
615 5 16.8913 19.0777 29.2833
616 3 21.9402 17.1703 8.57348
617 4 16.5824 28.2079 19.925
618 5 40.7914 23.3941 29.7428
619 4 33.8733 26.9831 29.9245
620 5 14.3044 13.1273 1.87724
621 3 16.4629 21.8984 3.27432
622 5 35.7249 15.4255 8.10373
623 4 14.4572 25.9447 4.7187
624 4 22.1834 43.8882 29.5352
625 5 44.1829 34.2446 25.0802
626 2 30.1314 38.4568 2.92658
627 4 14.3716 14.3984 8.77453
628 4 39.1237 35.392 17.0595
629 4 35.9226 11.8894 31.2636
630 4 20.2533 28.1987 21.704
631 4 28.7187 0.857344 13.7535
632 3 7.20326 11.0075 16.1957
633 3 30.4203 45.6562 41.7744
634 6 38.7052 25.5064 33.1479
635 4 27.782 9.62588 1.74109
636 5 30.1022 6.95333 20.575
637 3 33.528 15.709 19.9549
638 4 13.4316 28.3169 44.9928
639 4 9.23311 24.9105 30.4903
640 4 37.7125 15.5464 0.340947
641 4 30.9575 10.4217 5.01547
642 2 26.8648 42.8729 21.5798
643 4 13.9255 20.1519 39.6297
644 4 30.0691 33.5595 24.9245
645 4 12.5402 5.52488 23.376
646 5 3.50037 45.7881 28.96
647 4 45.9604 20.5533 19.4064
648 4 37.1547 42.0194 39.059
649 5 33.8072 11.4102 15.1698
650 3 35.7231 34.0565 24.0305
651 4 7.05452 1.64461 16.6046
652 2 12.151 7.23691 15.2218
653 3 38.8757 37.4139 16.852
654 4 16.2379 32.1951 28.9771
655 4 30.0562 31.3104 12.8028
656 4 11.9217 42.4339 0.994854
657 3 2.25319 10.8445 20.051
658 5 21.0042 17.2871 28.2308
659 6 22.2497 0.635658 40.8342
660 4 22.3036 0.845782 6.93613
661 6 41.3661 1.22712 30.8508
662 3 34.4669 29.0915 33.16
663 5 11.4894 6.62015 20.5656
664 4 42.9173 30.7077 8.83128
665 3 32.2147 46.6299 20.8326
666 4 29.0903 33.4714 41.5936
667 3 44.9665 26.4241 20.7357
668 3 16.9475 35.7984 26.2501
669 5 32.6139 26.83 27.3604
670 3 9.24992 25.5406 18.2308
671 5 29.9611 36.6184 13.4427
672 5 40.5413 29.8643 0.0208338
673 3 20.8507 24.8171 28.827
674 3 37.0446 16.1575 32.6774
675 6 8.04411 10.6913 2.26066
676 5 18.4128 32.3789 34.9118
677 3 22.0166 28.2332 20.7752
678 4 0.0925331 45.7397 18.23
679 4 34.3495 30.9492 19.3033
680 4 29.9253 10.387 11.4477
681 3 23.2714 27.8461 2.24992
682 3 22.4403 10.4275 6.99994
683 2 22.5084 29.6499 43.9109
684 5 32.2255 41.9998 19.5925
685 2 22.8654 29.726 12.4786
686 4 13.2911 39.9571 18.2695
687 3 0.0583675 25.4975 31.5908
688 2 42.2992 29.4183 27.1063
689 5 19.1398 37.2463 19.6942
690 5 5.13693 0.41361 43.9793
691 6 13.6676 39.614 6.87228
692 5 29.3432 34.0056 5.24179
693 4 17.9423 22.6228 34.3233
694 5 23.2765 14.0238 27.5266
695 3 20.252 31.7329 17.1956
696 5 17.6757 9.09313 7.05132
697 3 10.9714 38.1702 9.45794
698 5 8.36705 1.59451 8.00416
699 4 25.9413 40.9884 20.4338
700 5 12.212 31.9056 35.2766
701 5 4.33987 29.7241 12.4024
702 5 14.6615 21.5961 10.3673
703 4 31.7035 39.832 14.4578
704 5 21.8819 39.9774 42.3042
705 4 46.1186 10.5534 27.2586
706 3 12.7946 21.0723 35.9601
707 2 15.6145 45.047 30.2482
708 4 43.8423 13.1555 12.2802
709 3 4.63623 20.5705 40.298
710 4 30.8261 44.3403 42.5336
711 4 30.2543 4.06809 43.2737
712 3 21.7549 5.66329 16.6779
713 3 25.8789 27.8446 8.78163
714 5 19.1839 13.7931 34.8695
715 3 44.2819 27.5265 15.3255
716 6 30.6532 37.4508 29.0435
717 3 9.49209 38.5334 0.65538
718 3 21.1144 38.3332 33.1153
719 4 12.508 44.4443 43.4562
720 2 13.5655 4.64374 14.0283
721 4 28.5863 24.8429 20.2028
722 3 30.9332 25.2973 46.8973
723 4 43.0913 21.3339 8.17795
724 5 9.36486 32.9886 39.2804
725 3 40.1018 42.0658 10.4578
726 4 29.1319 15.529 5.74534
727 4 34.1088 34.5436 29.9393
728 4 17.7656 22.6418 14.6982
729 3 12.3834 6.46378 17.9666
730 4 36.1125 24.1172 17.0172
731 3 37.5 8.141 8.86596
732 3 16.186 24.6639 31.2758
733 2 4.00538 13.5777 34.3583
734 4 24.3513 45.6956 2.29674
735 5 23.8141 31.9812 26.8095
736 3 21.5475 40.5774 47.0307
737 5 34.8724 37.9121 2.27143
738 5 36.37 8.9158 5.44889
739 4 38.4838 40.9544 34.7293
740 4 34.5477 40.0631 32.9248
741 4 23.0567 16.214 35.9862
742 2 10.2127 9.40585 32.1288
743 4 46.2985 36.0347 14.795
744 3 31.0123 28.6451 10.1592
745 3 37.0128 29.92 10.3993
746 2 38.8404 10.4036 3.48231
747 5 30.6092 0.855817 21.5928
748 2 0.369561 41.9368 14.0581
749 3 41.9905 3.16153 34.3217
750 5 26.0904 15.9638 27.2931
751 3 46.6484 2.09895 46.4432
752 2 12.6231 40.1442 2.0826
753 5 10.3256 35.275 40.6847
754 6 12.5561 15.4222 43.5419
755 5 25.8941 35.3018 22.5389
756 3 31.2451 4.88952 47.058
757 5 44.0294 33.0235 8.57569
758 5 8.37562 33.2859 41.5663
759 4 9.42378 15.1823 10.3987
760 4 21.1186 11.7005 15.0322
761 3 21.5059 8.32036 19.5727
762 3 4.17173 17.4737 6.29305
763 5 46.4952 37.5486 2.45987
764 5 24.2151 42.4167 10.0866
765 6 13.5948 29.38 39.3484
766 4 36.8377 22.0029 41.1655
767 3 14.5209 13.5552 7.2805
768 5 43.9557 20.0183 39.0963
769 3 17.4254 19.2663 19.746
770 6 39.3192 14.3582 31.6515
771 6 6.20723 21.9154 6.88577
772 4 5.4079 2.43408 10.0508
773 1 4.23383 33.1944 24.7516
774 3 5.87902 10.0945 30.549
775 4 5.69934 33.3115 23.5645
776 4 29.7108 30.2322 23.3478
777 3 28.9574 18.788 20.0088
778 4 35.0869 25.9549 21.1273
779 3 24.1113 32.4384 15.5917
780 3 25.6223 36.3982 45.6617
781 2 31.2912 8.13692 17.8844
782 5 17.9947 15.4268 32.3596
783 3 2.32276 25.4515 35.6859
784 5 10.6764 23.1446 29.5812
785 4 19.6323 42.8363 42.927
786 2 34.0512 32.649 33.8449
787 5 6.50314 18.0781 38.3652
788 5 37.9136 16.0291 35.2689
789 5 17.9704 2.39269 40.9173
790 3 3.05158 39.6476 40.7201
791 4 16.7785 37.7717 36.5286
792 3 37.4998 15.7601 0.679851
793 2 10.8698 3.92843 14.6495
794 4 19.9918 19.4535 44.5854
795 3 31.6688 11.5517 45.9126
796 4 20.8135 35.8875 39.9288
797 4 29.9984 36.5411 24.4396
798 5 17.4356 8.267 27.1427
799 6 12.3375 21.5967 33.7896
800 3 35.2745 46.5683 11.842
801 6 46.7626 25.1338 40.1512
802 4 30.2856 12.7304 29.0175
803 4 4.68012 14.8834 7.47063
804 4 18.8681 36.5283 27.1811
805 4 21.7319 11.4236 3.75902
806 5 46.1102 6.37756 46.6152
807 4 41.469 2.35879 34.5488
808 2 14.6191 32.7885 10.3473
809 5 46.2193 20.6704 9.71953
810 3 32.7276 37.3811 12.5563
811 5 12.9873 6.81982 41.3576
812 5 34.055 14.613 37.072
813 4 0.908886 0.763877 17.0776
814 4 21.9875 28.4922 26.6138
815 5 23.3364 8.01046 11.9431
816 4 22.528 3.16695 7.71836
817 4 13.9985 10.928 20.8687
818 5 44.909 34.5846 27.1044
819 4 32.723 22.5036 45.488
820 3 29.9383 38.3603 41.9439
821 4 42.8331 0.353233 12.8906
822 4 34.7053 32.6516 14.4845
823 5 4.65685 36.399 17.2758
824 4 41.4665 2.58145 4.32142
825 5 33.758 6.37254 16.259
826 5 41.078 26.3601 23.0041
827 5 11.2803 46.8494 35.1737
828 2 28.9716 35.5177 36.15
829 5 3.17197 24.5337 11.6443
830 4 13.3483 8.84042 38.3468
831 3 42.011 41.2186 39.204
832 5 23.1811 16.6819 46.0949
833 4 21.2364 30.1239 33.5949
834 4 31.4432 37.8653 7.75501
835 4 30.0473 33.4017 34.5655
836 4 32.6639 42.6097 42.4099
837 4 43.9383 4.26984 13.4446
838 5 36.0719 43.498 14.8065
839 5 15.4966 24.9822 19.4498
840 3 22.5398 13.0787 17.0943
841 5 29.3915 19.9982 32.1662
842 5 37.775 38.7465 21.9809
843 3 3.67757 27.9463 5.26245
844 4 31.4165 11.3194 2.32716
845 5 41.9681 39.4381 36.034
846 4 44.6518 13.7777 32.0235
847 3 40.7189 22.5569 41.1023
848 5 9.5281 34.563 38.2505
849 4 31.0867 33.4403 36.7112
850 3 18.7292 44.26 13.0667
851 5 21.0145 7.03946 45.8274
852 4 12.931 35.467 9.6686
853 5 5.12348 15.8429 1.82614
854 7 2.36656 34.6423 34.3185
855 3 21.5894 8.89424 18.2426
856 5 44.4621 0.194934 10.8196
857 3 16.0572 24.6288 34.6292
858 4 30.4369 0.139771 35.6194
859 5 30.3551 40.5666 18.6092
860 6 33.6873 8.04688 6.36471
861 4 0.307447 42.8184 23.1723
862 3 0.836104 0.280773 36.2638
863 5 2.16624 33.9872 45.9985
864 4 32.5556 35.8812 14.7268
865 3 32.222 43.5047 1.36753
866 4 22.3758 39.353 34.6589
867 2 39.249 30.5985 26.8302
868 5 34.2643 38.05 35.8162
869 4 28.7564 7.76143 35.2342
870 2 5.05439 18.5584 46.666
871 4 29.821 33.1205 24.1298
872 2 43.9675 13.5777 38.8262
873 4 43.4697 41.9231 37.5004
874 3 24.5619 39.2058 9.42688
875 2 32.972 21.9898 5.49986
876 5 36.1108 31.3296 11.8935
877 5 5.89019 6.08444 16.4066
878 7 38.4283 38.2776 35.7367
879 5 44.1966 4.10331 14.8307
880 5 12.6116 16.1657 45.4566
881 5 16.9441 23.2909 11.3194
882 5 14.1399 10 10.5791
883 5 23.5401 10.5572 10.4579
884 4 19.3525 28.371 42.5106
885 5 4.22964 19.9245 40.1279
886 4 22.5233 29.6004 46.0945
887 4 19.5366 44.994 46.296
888 4 12.9256 22.7177 32.5764
889 4 16.4898 15.0492 23.443
890 4 17.3337 0.860271 18.226
891 4 40.868 40.8916 9.29594
892 5 12.9488 30.7962 39.2206
893 5 31.9655 5.41741 9.97346
894 3 0.955183 45.8651 19.8349
895 4 28.3972 33.042 18.2936
896 5 37.7757 34.3006 42.9316
897 3 43.8343 12.1535 11.8738
898 4 38.4352 4.53972 38.4969
899 5 14.4058 3.57504 43.328
900 4 29.772 25.1963 20.2606
901 4 9.43582 33.5191 6.72304
902 2 26.9329 30.364 43.2733
903 4 25.5514 30.1144 6.6972
904 5 3.40046 23.3094 11.5675
905 5 7.59879 28.9992 31.1052
906 5 30.6452 27.1776 3.89673
907 4 22.7774 31.8789 20.875
908 4 32.8847 5.69005 24.9357
909 3 37.297 41.9462 32.2094
910 2 39.4629 19.9629 40.9892
911 5 5.21711 20.0742 9.11084
912 3 43.1381 44.835 0.918785
913 4 13.1877 5.37793 21.3016
914 7 14.6286 29.5787 13.5119
915 3 41.5615 36.8424 17.8963
916 5 25.0494 22.7961 35.2382
917 3 19.8383 13.6955 46.1111
918 3 33.2077 43.8099 7.01011
919 2 18.8356 18.4412 17.0008
920 5 10.6551 15.6526 5.65877
921 4 2.83447 5.57779 5.76157
922 5 40.9714 39.8843 42.0494
923 4 38.9437 39.9307 3.60983
924 3 23.4646 30.1121 42.9099
925 5 35.2777 34.6618 21.6543
926 3 40.7783 31.8739 34.7414
927 4 13.4874 9.60592 6.42315
928 2 6.81412 13.4595 26.9408
929 4 0.986594 9.52178 38.7409
930 6 4.71389 41.2774 21.0247
931 3 25.6939 24.782 44.8641
932 6 43.3228 10.4505 9.43699
933 6 39.3624 3.01972 13.8494
934 4 5.0473 46.0103 12.1677
935 5 4.59891 2.41121 30.6906
936 5 38.6506 35.6913 38.511
937 4 5.76636 45.6172 2.68579
938 4 41.2783 11.8503 33.7893
939 4 3.12731 43.2906 1.26047
940 3 16.738 5.82711 11.4067
941 4 14.4536 41.9397 1.13783
942 3 40.7102 36.1336 18.1092
943 3 19.0653 10.5404 0.660273
944 5 43.0792 28.4798 40.3605
945 5 15.2349 8.16203 29.7564
946 2 32.1656 20.6879 7.56718
947 5 33.8587 28.6912 0.660146
948 4 36.2178 42.5952 45.9012
949 2 41.1116 23.3141 40.0988
950 4 40.4562 22.9844 27.1313
951 5 42.2887 28.9608 33.9259
952 4 17.5838 8.58085 10.1739
953 4 36.5697 12.8586 32.761
954 4 1.41871 31.1232 26.417
955 3 5.00148 2.86646 9.72631
956 4 14.687 25.5643 20.8053
957 3 42.1842 20.392 38.7052
958 4 44.2014 17.7113 11.3774
959 3 36.8969 17.4203 41.8398
960 3 26.6338 43.2763 33.5208
961 4 33.3925 10.0478 17.7103
962 5 21.1867 0.698324 8.31238
963 4 17.1359 14.5239 29.4406
964 3 2.59637 22.5155 8.97359
965 5 11.8656 33.3435 21.9496
966 3 40.266 9.65135 43.8392
967 4 3.9063 45.2378 7.74493
968 4 41.8575 4.73133 9.32514
969 5 14.3058 27.6394 31.2666
970 4 35.0955 0.398572 37.9119
971 3 20.3626 42.674 3.9281
972 6 31.2723 21.2073 0.546859
973 4 5.27248 26.6277 43.2619
974 3 35.0578 45.5936 14.4637
975 4 30.3438 41.3379 25.5685
976 2 41.4594 19.259 27.4643
977 6 18.7079 0.959632 45.4417
978 3 36.6236 9.90741 28.1396
979 4 6.77214 17.7303 3.73281
980 5 12.9374 28.7543 23.9539
981 5 46.262 12.7826 38.2684
982 5 18.1265 2.30636 6.09594
983 6 28.2951 17.8086 6.80355
984 4 42.4077 28.5727 8.97019
985 4 20.8698 44.9803 42.4654
986 5 4.29969 23.8509 29.5326